# vtk DataFile Version 1.0
Fluid Results Stokes
ASCII
 
DATASET UNSTRUCTURED_GRID
POINTS 23178 float
119.903 32.6027 0
119.999 32.6791 0
119.849 32.7737 0
119.999 32.5003 0
119.903 32.6012 0
119.834 32.5003 0
120 32.5009 0
120 32.6782 0
119.904 32.6018 0
119.744 32.6258 0
119.833 32.5008 0
119.902 32.6016 0
119.771 32.9693 0
119.999 32.8832 0
119.999 33.1115 0
119.77 32.9678 0
119.667 32.7612 0
119.848 32.7752 0
119.744 32.6267 0
119.902 32.6025 0
119.849 32.7735 0
119.832 32.5004 0
119.743 32.6254 0
119.667 32.5004 0
119.999 32.68 0
119.999 32.8811 0
119.85 32.7746 0
119.742 32.626 0
119.518 32.6625 0
119.666 32.501 0
119.848 32.774 0
119.667 32.76 0
119.743 32.6272 0
119.538 32.89 0
119.518 32.6642 0
119.665 32.7605 0
119.537 32.8915 0
119.36 33.0682 0
119.356 32.8174 0
119.319 32.6374 0
119.516 32.6636 0
119.356 32.8152 0
119.769 32.9704 0
119.76 33.208 0
119.572 33.0998 0
119.999 32.8821 0
119.771 32.9682 0
119.849 32.7756 0
119.999 33.114 0
119.999 33.3735 0
119.762 33.2094 0
119.742 32.6268 0
119.666 32.7597 0
119.518 32.6634 0
119.739 33.6493 0
119.999 33.3768 0
119.999 33.6715 0
119.471 33.3085 0
119.695 33.4208 0
119.457 33.5837 0
119.762 33.208 0
119.771 32.9704 0
119.998 33.1126 0
119.472 33.3073 0
119.76 33.2102 0
119.696 33.4195 0
119.57 33.0991 0
119.36 33.0691 0
119.537 32.8924 0
119.471 33.3062 0
119.571 33.1009 0
119.759 33.2091 0
119.47 33.3057 0
119.36 33.0705 0
119.57 33.1004 0
119.516 32.6625 0
119.32 32.6363 0
119.499 32.501 0
119.666 32.5005 0
119.518 32.6621 0
119.501 32.5005 0
119.537 32.8901 0
119.357 32.8161 0
119.517 32.6644 0
119.318 32.6358 0
119.168 32.5005 0
119.333 32.5005 0
119.499 32.5005 0
119.319 32.6358 0
119.334 32.5005 0
119.355 32.8156 0
119.164 32.793 0
119.318 32.6378 0
119.998 33.376 0
119.738 33.6485 0
119.697 33.4212 0
118.922 32.6304 0
118.834 32.5004 0
118.999 32.5004 0
119.119 32.6352 0
118.923 32.6309 0
119 32.5009 0
118.821 32.7829 0
118.722 32.6324 0
118.921 32.6318 0
118.995 32.7742 0
118.978 32.9486 0
118.822 32.7844 0
119.119 32.6362 0
118.996 32.7727 0
118.923 32.6318 0
119.162 32.7939 0
118.979 32.9487 0
118.997 32.7743 0
119.12 32.6367 0
119.162 32.7929 0
118.997 32.7732 0
119.166 32.5005 0
119.12 32.6348 0
119.001 32.5005 0
119.167 32.5009 0
119.317 32.6362 0
119.121 32.6353 0
119.355 32.8176 0
119.358 33.0684 0
119.199 32.957 0
118.757 32.9572 0
118.544 32.9454 0
118.631 32.7766 0
118.922 32.6323 0
118.995 32.7732 0
118.822 32.7834 0
118.652 33.1464 0
118.545 32.9466 0
118.757 32.9585 0
119.761 33.2104 0
119.998 33.3745 0
119.697 33.4198 0
118.16 33.0117 0
118.207 33.2357 0
117.937 33.1303 0
118.108 32.7939 0
118.16 33.0096 0
117.964 32.9237 0
118.314 32.8762 0
118.396 33.0887 0
118.162 33.0104 0
117.963 32.9249 0
118.159 33.0107 0
117.936 33.1292 0
118.268 32.6624 0
118.313 32.874 0
118.11 32.7926 0
118.398 33.0906 0
118.651 33.1481 0
118.479 33.3186 0
118.442 32.7724 0
118.542 32.9451 0
118.315 32.8749 0
118.443 32.772 0
118.63 32.776 0
118.543 32.9448 0
118.29 33.5128 0
118.085 33.71 0
118.019 33.4031 0
119.743 33.9177 0
119.738 33.6511 0
119.998 33.6733 0
119.999 34.3929 0
119.617 34.2055 0
119.999 34.0129 0
119.428 33.8826 0
119.737 33.6518 0
119.741 33.9184 0
119.736 33.6492 0
119.458 33.5849 0
119.696 33.4219 0
119.999 34.0095 0
119.744 33.9189 0
119.999 33.6745 0
119.427 33.8815 0
119.457 33.5864 0
119.736 33.6507 0
119.381 34.6055 0
119.253 34.2113 0
119.613 34.2068 0
119.077 33.8976 0
119.188 33.6257 0
119.424 33.8824 0
118.746 33.8649 0
118.889 33.6219 0
119.074 33.8975 0
118.424 33.81 0
118.742 33.8663 0
118.582 34.1455 0
118.424 33.8081 0
118.587 33.5784 0
118.743 33.8644 0
119.666 32.7616 0
119.769 32.9682 0
119.539 32.891 0
119.769 32.9693 0
119.571 33.0987 0
119.539 32.8921 0
119.188 33.6229 0
119.253 33.3467 0
119.455 33.5845 0
119.252 33.3444 0
119.011 33.3774 0
119.119 33.143 0
119.456 33.5835 0
119.254 33.3457 0
119.469 33.3083 0
119.187 33.6222 0
119.012 33.379 0
119.252 33.346 0
119.198 32.9561 0
119.164 32.7941 0
119.354 32.8167 0
119.12 33.1406 0
119.198 32.9581 0
119.358 33.0695 0
119.118 33.1409 0
118.889 33.1515 0
118.978 32.9511 0
118.756 33.3683 0
118.888 33.1537 0
119.009 33.3775 0
118.977 32.9492 0
118.759 32.9573 0
118.821 32.785 0
119.197 32.9565 0
118.98 32.9493 0
119.163 32.7946 0
118.888 33.1509 0
118.759 32.9585 0
118.977 32.9505 0
119.01 33.3767 0
118.889 33.1529 0
119.118 33.1423 0
119.359 33.0713 0
119.469 33.3065 0
119.254 33.3439 0
118.889 33.6185 0
118.756 33.3698 0
119.009 33.379 0
118.654 33.1471 0
118.758 32.9591 0
118.887 33.1515 0
119.358 33.0708 0
119.253 33.3434 0
119.12 33.1419 0
119.425 33.8814 0
119.189 33.6247 0
119.456 33.5863 0
118.89 33.6194 0
119.01 33.3799 0
119.186 33.6231 0
119.317 32.6372 0
119.163 32.7924 0
119.121 32.6362 0
118.979 32.9504 0
119.197 32.9577 0
119.119 33.1402 0
119.998 34.3946 0
119.712 34.5238 0
119.616 34.2072 0
119.998 34.0113 0
119.616 34.2039 0
119.743 33.9207 0
117.484 33.1242 0
117.689 33.1141 0
117.753 33.3033 0
118.721 32.631 0
118.667 32.5004 0
118.832 32.5004 0
118.632 32.775 0
118.721 32.6329 0
118.82 32.7834 0
118.758 32.9567 0
118.632 32.7761 0
118.82 32.7845 0
118.443 32.771 0
118.499 32.6249 0
118.63 32.7749 0
118.631 32.7745 0
118.5 32.6245 0
118.719 32.6323 0
118.833 32.5009 0
118.921 32.6309 0
118.722 32.6315 0
119.713 34.5277 0
119.998 34.8309 0
119.679 34.9332 0
119.614 34.2035 0
119.428 33.8844 0
119.741 33.9203 0
119.383 34.6066 0
119.614 34.2079 0
119.71 34.5246 0
119.253 34.2088 0
119.426 33.8854 0
119.613 34.2044 0
119.999 34.3967 0
119.999 34.8291 0
119.714 34.5259 0
118.666 32.5009 0
118.72 32.6314 0
118.5 32.6236 0
117.353 32.9589 0
117.481 33.123 0
117.152 33.0994 0
117.365 32.7737 0
117.352 32.9569 0
117.193 32.8387 0
117.217 32.6493 0
117.364 32.7726 0
117.192 32.8376 0
117.436 32.642 0
117.559 32.8303 0
117.366 32.7726 0
117.559 32.8325 0
117.482 33.1221 0
117.354 32.958 0
117.666 32.5005 0
117.637 32.6519 0
117.501 32.5005 0
117.839 32.7732 0
117.961 32.9235 0
117.731 32.9469 0
118.038 32.6462 0
118.108 32.7922 0
117.84 32.7718 0
118.166 32.5005 0
118.039 32.6443 0
118.001 32.5005 0
118.167 32.501 0
118.267 32.6607 0
118.04 32.6449 0
117.729 32.9478 0
117.483 33.1221 0
117.56 32.8325 0
117.837 32.7729 0
117.73 32.9466 0
117.562 32.8313 0
117.689 33.1129 0
117.484 33.123 0
117.729 32.9487 0
117.934 33.1297 0
117.69 33.1129 0
117.731 32.9488 0
117.31 33.3637 0
117.483 33.7067 0
117.15 33.5849 0
117.752 33.3043 0
117.554 33.4239 0
117.483 33.1253 0
117.753 33.3059 0
117.802 33.5896 0
117.555 33.4254 0
117.934 33.1309 0
117.754 33.3033 0
117.69 33.1141 0
117.937 33.1316 0
118.207 33.237 0
118.018 33.4002 0
118.478 33.3189 0
118.21 33.2366 0
118.396 33.0909 0
117.837 32.6176 0
118.037 32.6456 0
117.839 32.7712 0
118.269 32.6606 0
118.334 32.501 0
118.497 32.6236 0
118.04 32.6459 0
118.267 32.6616 0
118.109 32.7918 0
118.168 32.5005 0
118.333 32.5005 0
118.268 32.6602 0
117.802 33.5926 0
117.801 33.9049 0
117.486 33.7086 0
118.016 33.402 0
117.804 33.5895 0
117.755 33.3058 0
117.935 33.1318 0
118.017 33.4005 0
117.755 33.3042 0
118.208 33.2383 0
118.29 33.5112 0
118.02 33.4015 0
118.083 33.7119 0
117.803 33.9049 0
117.804 33.5926 0
118.018 33.4034 0
118.084 33.7103 0
117.805 33.5909 0
118.291 33.5141 0
118.421 33.8073 0
118.087 33.7113 0
118.498 32.6231 0
118.334 32.5004 0
118.499 32.5004 0
118.666 32.5004 0
118.499 32.6231 0
118.501 32.5004 0
118.442 32.7706 0
118.27 32.6615 0
118.498 32.6246 0
118.395 33.0899 0
118.209 33.2356 0
118.162 33.0116 0
118.542 32.9462 0
118.397 33.0885 0
118.315 32.8759 0
118.543 32.9471 0
118.651 33.1468 0
118.398 33.0894 0
118.753 33.3681 0
118.481 33.3196 0
118.652 33.149 0
118.887 33.1529 0
118.755 33.3675 0
118.653 33.1484 0
118.887 33.6209 0
118.744 33.8638 0
118.589 33.5778 0
118.292 33.5109 0
118.209 33.238 0
118.478 33.3203 0
117.963 32.923 0
117.84 32.7727 0
118.107 32.7931 0
118.313 32.8752 0
118.161 33.0094 0
118.109 32.7937 0
117.935 33.129 0
117.732 32.9481 0
117.962 32.9247 0
119.074 33.8994 0
118.893 34.1907 0
118.746 33.8668 0
119.186 33.6248 0
119.075 33.8967 0
118.89 33.6211 0
118.892 34.1915 0
118.583 34.1468 0
118.744 33.8676 0
119.249 34.2089 0
118.895 34.1918 0
119.075 33.9005 0
119.251 34.2122 0
119.379 34.6065 0
119.021 34.4994 0
119.424 33.8844 0
119.251 34.2078 0
119.077 33.8995 0
119.379 34.6088 0
119.048 34.8795 0
119.021 34.5016 0
119.677 34.9325 0
119.383 34.609 0
119.711 34.527 0
119.999 35.3242 0
119.68 34.9359 0
119.999 34.8336 0
119.996 35.3275 0
119.444 35.6136 0
119.426 35.1394 0
118.218 35.2509 0
118.161 35.7071 0
117.634 35.3924 0
118.343 34.8113 0
118.219 35.2463 0
117.855 34.9272 0
118.345 34.8118 0
118.675 35.102 0
118.222 35.2469 0
119.425 35.1348 0
119.382 34.6111 0
119.676 34.9345 0
118.679 34.5922 0
119.045 34.8814 0
118.679 35.1001 0
119.02 34.498 0
118.895 34.1938 0
119.249 34.2109 0
118.68 34.5902 0
119.018 34.5016 0
119.046 34.8794 0
118.679 34.5879 0
118.893 34.1951 0
119.018 34.4993 0
118.343 34.3657 0
118.675 34.5895 0
118.346 34.8072 0
118.583 34.1492 0
118.891 34.1939 0
118.678 34.5867 0
119.042 35.3687 0
119.438 35.6155 0
118.743 35.6445 0
119.998 35.8871 0
119.445 35.6161 0
119.998 35.33 0
118.736 35.6444 0
118.165 35.7079 0
118.221 35.2517 0
119.04 35.367 0
118.74 35.6428 0
118.679 35.1052 0
118.655 36.1844 0
118.167 35.7111 0
118.737 35.6476 0
118.441 32.7714 0
118.314 32.8739 0
118.269 32.6623 0
117.638 32.6539 0
117.837 32.7719 0
117.561 32.8303 0
117.999 32.5004 0
117.836 32.6162 0
117.834 32.5004 0
118 32.5009 0
118.038 32.6447 0
117.837 32.6167 0
119.422 35.1371 0
119.043 35.3646 0
119.048 34.8841 0
119.997 35.3252 0
119.427 35.1372 0
119.678 34.9369 0
119.44 35.6138 0
119.045 35.367 0
119.423 35.1396 0
118.194 34.0206 0
117.911 34.2204 0
117.803 33.908 0
118.58 34.1461 0
118.199 34.0201 0
118.422 33.8105 0
118.34 34.3619 0
117.913 34.2219 0
118.196 34.0221 0
118.676 34.5873 0
118.344 34.3635 0
118.581 34.1498 0
118.195 34.0189 0
117.804 33.9063 0
118.084 33.7134 0
118.05 34.5594 0
117.912 34.2237 0
118.34 34.3637 0
118.047 34.5599 0
117.61 34.5103 0
[...]
POINT_DATA 23178
VECTORS velocity float
-5.06762e-08 -2.52331e-10 0
-3.98716e-08 -5.82511e-12 0
2.92652e-08 -2.76131e-09 0
-2.87866e-10 4.08548e-13 0
-5.04655e-08 -2.4587e-10 0
-2.90327e-10 -3.66977e-13 0
-7.93145e-10 4.02439e-13 0
-4.02415e-08 -2.18762e-12 0
-5.05477e-08 -2.4769e-10 0
-5.36268e-08 -1.00442e-09 0
-6.4895e-10 2.02109e-14 0
-5.05291e-08 -2.49866e-10 0
3.76333e-07 -1.21323e-08 0
1.93043e-07 -2.70386e-11 0
8.14312e-07 -6.65389e-11 0
3.7243e-07 -1.21368e-08 0
1.07291e-08 -5.57246e-09 0
3.08563e-08 -2.81779e-09 0
-5.36093e-08 -1.01893e-09 0
-5.06563e-08 -2.53765e-10 0
2.90595e-08 -2.77179e-09 0
-3.59648e-10 3.98509e-13 0
-5.36444e-08 -1.00145e-09 0
-3.68981e-10 -6.2264e-13 0
-3.9488e-08 -3.67951e-12 0
1.89125e-07 -1.71615e-11 0
3.02831e-08 -2.77424e-09 0
-5.3653e-08 -1.01378e-09 0
-5.49151e-08 -3.14428e-09 0
-8.43205e-10 9.70351e-13 0
2.96137e-08 -2.79639e-09 0
9.62307e-09 -5.52433e-09 0
-5.361e-08 -1.02974e-09 0
1.86108e-07 -1.70054e-08 0
-5.45199e-08 -3.21562e-09 0
1.00394e-08 -5.57389e-09 0
1.88879e-07 -1.7193e-08 0
6.12366e-07 -4.91758e-08 0
5.35239e-08 -1.57673e-08 0
-6.64246e-08 -3.17082e-09 0
-5.47493e-08 -3.19901e-09 0
5.06473e-08 -1.55571e-08 0
3.78839e-07 -1.23002e-08 0
1.18426e-06 -2.84031e-08 0
7.47483e-07 -3.66135e-08 0
1.9093e-07 -4.40836e-11 0
3.73493e-07 -1.21012e-08 0
3.13222e-08 -2.80603e-09 0
8.23051e-07 -7.12566e-11 0
2.00926e-06 -1.39776e-10 0
1.19042e-06 -2.82553e-08 0
-5.36363e-08 -1.02758e-09 0
9.21907e-09 -5.52652e-09 0
-5.47072e-08 -3.17694e-09 0
3.8229e-06 -7.84022e-08 0
2.02786e-06 -1.50984e-10 0
4.01355e-06 -2.73219e-10 0
1.61294e-06 -8.07882e-08 0
2.26192e-06 -6.00519e-08 0
3.28082e-06 -1.4545e-07 0
1.18456e-06 -2.82393e-08 0
3.79021e-07 -1.2229e-08 0
8.18206e-07 -1.37651e-10 0
1.60687e-06 -8.03951e-08 0
1.19364e-06 -2.86431e-08 0
2.25465e-06 -5.96995e-08 0
7.44739e-07 -3.6705e-08 0
6.15471e-07 -4.92819e-08 0
1.90731e-07 -1.72492e-08 0
1.60145e-06 -8.02523e-08 0
7.51248e-07 -3.68304e-08 0
1.18902e-06 -2.86087e-08 0
1.59887e-06 -8.03604e-08 0
6.19826e-07 -4.95338e-08 0
7.49483e-07 -3.68891e-08 0
-5.49813e-08 -3.15599e-09 0
-6.63997e-08 -3.12106e-09 0
-9.08241e-10 1.16607e-12 0
-4.75859e-10 1.63405e-12 0
-5.50426e-08 -3.13245e-09 0
-4.95778e-10 -9.08585e-14 0
1.86369e-07 -1.7058e-08 0
5.18154e-08 -1.56231e-08 0
-5.45148e-08 -3.22777e-09 0
-6.64727e-08 -3.10186e-09 0
-4.64496e-10 -1.35415e-12 0
-4.37336e-10 -2.62908e-14 0
-4.14136e-10 1.33589e-12 0
-6.64223e-08 -3.09917e-09 0
-4.37167e-10 -1.72638e-14 0
5.10938e-08 -1.56262e-08 0
3.89054e-09 -1.74117e-08 0
-6.64778e-08 -3.19513e-09 0
2.02317e-06 -3.29901e-10 0
3.81629e-06 -7.85967e-08 0
2.26487e-06 -5.95796e-08 0
-8.85445e-08 -4.48496e-09 0
-5.19493e-10 -7.99653e-13 0
-4.81128e-10 3.19052e-13 0
-7.67756e-08 -3.97172e-09 0
-8.85754e-08 -4.51251e-09 0
-9.75615e-10 -8.80615e-13 0
-5.32156e-08 -2.26931e-08 0
-1.04104e-07 -5.43457e-09 0
-8.89043e-08 -4.5836e-09 0
-3.52357e-08 -1.82793e-08 0
2.21561e-07 -4.89944e-08 0
-5.17554e-08 -2.29186e-08 0
-7.68544e-08 -4.02524e-09 0
-3.64516e-08 -1.80608e-08 0
-8.87672e-08 -4.57546e-09 0
4.57804e-09 -1.75621e-08 0
2.21873e-07 -4.89512e-08 0
-3.50582e-08 -1.82627e-08 0
-7.68513e-08 -4.05438e-09 0
3.51808e-09 -1.74306e-08 0
-3.58884e-08 -1.8118e-08 0
-4.62886e-10 -2.25937e-14 0
-7.66881e-08 -3.94339e-09 0
-4.95936e-10 -1.10728e-12 0
-9.25843e-10 -1.45175e-12 0
-6.65102e-08 -3.12532e-09 0
-7.6667e-08 -3.96577e-09 0
5.36989e-08 -1.58149e-08 0
6.12868e-07 -4.9296e-08 0
2.82664e-07 -4.00309e-08 0
1.87061e-07 -6.13459e-08 0
1.04001e-07 -6.76492e-08 0
-8.98908e-08 -2.50086e-08 0
-8.89375e-08 -4.61314e-09 0
-3.61639e-08 -1.81424e-08 0
-5.26765e-08 -2.27524e-08 0
6.75798e-07 -1.30216e-07 0
1.06347e-07 -6.80173e-08 0
1.89669e-07 -6.16699e-08 0
1.19475e-06 -2.84533e-08 0
2.01497e-06 -3.18704e-10 0
2.2562e-06 -5.93811e-08 0
9.84489e-08 -1.09986e-07 0
7.88e-07 -2.17919e-07 0
2.81296e-07 -1.82533e-07 0
-1.93441e-07 -3.79246e-08 0
9.38115e-08 -1.09087e-07 0
-1.2948e-07 -8.30695e-08 0
-7.03751e-08 -5.56109e-08 0
3.88755e-07 -1.27719e-07 0
9.64322e-08 -1.09323e-07 0
-1.28265e-07 -8.35225e-08 0
9.59186e-08 -1.09589e-07 0
2.77887e-07 -1.82005e-07 0
-1.63018e-07 -1.08529e-08 0
-7.31074e-08 -5.50013e-08 0
-1.93605e-07 -3.75608e-08 0
3.95235e-07 -1.28384e-07 0
6.81066e-07 -1.31006e-07 0
1.29454e-06 -2.30551e-07 0
-1.28078e-07 -2.73764e-08 0
1.02829e-07 -6.76523e-08 0
-7.14799e-08 -5.51975e-08 0
-1.2804e-07 -2.72937e-08 0
-9.04974e-08 -2.49138e-08 0
1.02527e-07 -6.75087e-08 0
2.21724e-06 -3.87161e-07 0
3.38544e-06 -6.0278e-07 0
1.40566e-06 -3.53921e-07 0
6.18062e-06 -1.15368e-07 0
3.83678e-06 -7.88906e-08 0
4.0279e-06 -5.38347e-10 0
1.18217e-05 -9.94156e-10 0
9.32901e-06 -2.43842e-07 0
7.17725e-06 -6.49927e-10 0
5.76226e-06 -2.43986e-07 0
3.84196e-06 -7.95554e-08 0
6.18725e-06 -1.16333e-07 0
3.82146e-06 -7.92255e-08 0
3.28922e-06 -1.45508e-07 0
2.2688e-06 -6.00227e-08 0
7.1415e-06 -4.35058e-10 0
6.19262e-06 -1.15163e-07 0
4.03741e-06 -2.64949e-10 0
5.75134e-06 -2.44013e-07 0
3.30003e-06 -1.46143e-07 0
3.83323e-06 -7.96952e-08 0
1.47887e-05 -5.84121e-07 0
9.2546e-06 -4.76247e-07 0
9.34456e-06 -2.47093e-07 0
5.75072e-06 -3.99078e-07 0
3.49832e-06 -2.33077e-07 0
5.7594e-06 -2.45637e-07 0
5.23593e-06 -5.13044e-07 0
3.33112e-06 -3.14092e-07 0
5.74826e-06 -4.00412e-07 0
4.49597e-06 -5.88214e-07 0
5.24699e-06 -5.15336e-07 0
7.98173e-06 -8.22287e-07 0
4.47975e-06 -5.86573e-07 0
2.846e-06 -3.66018e-07 0
5.22958e-06 -5.13961e-07 0
1.10624e-08 -5.60548e-09 0
3.73342e-07 -1.22094e-08 0
1.88102e-07 -1.70628e-08 0
3.76149e-07 -1.22844e-08 0
7.43751e-07 -3.65491e-08 0
1.90214e-07 -1.71715e-08 0
3.47761e-06 -2.31756e-07 0
1.75712e-06 -1.24039e-07 0
3.28594e-06 -1.46297e-07 0
1.74461e-06 -1.23665e-07 0
1.83968e-06 -1.7484e-07 0
8.15629e-07 -8.55768e-08 0
3.27864e-06 -1.45772e-07 0
1.75186e-06 -1.23589e-07 0
1.61139e-06 -8.09624e-08 0
3.47193e-06 -2.31896e-07 0
1.84845e-06 -1.75422e-07 0
1.75308e-06 -1.24083e-07 0
2.80458e-07 -3.99035e-08 0
4.98285e-09 -1.7544e-08 0
5.24381e-08 -1.57398e-08 0
8.07449e-07 -8.48853e-08 0
2.85003e-07 -4.02542e-08 0
6.16159e-07 -4.95392e-08 0
8.07764e-07 -8.51643e-08 0
7.79184e-07 -1.09938e-07 0
2.26939e-07 -4.94941e-08 0
1.68136e-06 -2.13842e-07 0
7.86728e-07 -1.10762e-07 0
1.83936e-06 -1.75298e-07 0
2.22698e-07 -4.91628e-08 0
1.87695e-07 -6.12609e-08 0
-5.13634e-08 -2.30303e-08 0
2.81254e-07 -4.0041e-08 0
2.23319e-07 -4.90514e-08 0
5.31223e-09 -1.76207e-08 0
7.76581e-07 -1.09849e-07 0
1.90317e-07 -6.15744e-08 0
2.25369e-07 -4.94166e-08 0
1.83574e-06 -1.74799e-07 0
7.84381e-07 -1.10398e-07 0
8.12976e-07 -8.55237e-08 0
6.22237e-07 -4.97502e-08 0
1.60274e-06 -8.0677e-08 0
1.74278e-06 -1.23156e-07 0
3.30644e-06 -3.12321e-07 0
1.6895e-06 -2.14585e-07 0
1.84779e-06 -1.759e-07 0
6.78623e-07 -1.30382e-07 0
1.91413e-07 -6.17987e-08 0
7.78603e-07 -1.10169e-07 0
6.20287e-07 -4.97433e-08 0
1.73957e-06 -1.23187e-07 0
8.12188e-07 -8.52026e-08 0
5.74989e-06 -2.44749e-07 0
3.4911e-06 -2.32308e-07 0
3.29893e-06 -1.46611e-07 0
3.31337e-06 -3.12388e-07 0
1.85294e-06 -1.75983e-07 0
3.47821e-06 -2.32598e-07 0
-6.65137e-08 -3.17015e-09 0
3.15996e-09 -1.73569e-08 0
-7.67517e-08 -4.0232e-09 0
2.25768e-07 -4.93077e-08 0
2.83871e-07 -4.02479e-08 0
8.05675e-07 -8.49e-08 0
1.18454e-05 -1.74252e-09 0
1.3669e-05 -2.53137e-07 0
9.3497e-06 -2.44915e-07 0
7.16038e-06 -1.08449e-09 0
9.30943e-06 -2.43958e-07 0
6.20997e-06 -1.16009e-07 0
-1.19559e-08 -2.10743e-07 0
9.27134e-08 -1.90861e-07 0
7.52063e-07 -3.14145e-07 0
-1.03729e-07 -5.32424e-09 0
-5.67264e-10 -3.34312e-13 0
-5.22396e-10 6.38425e-13 0
-9.08371e-08 -2.47047e-08 0
-1.04334e-07 -5.47723e-09 0
-5.29695e-08 -2.27866e-08 0
1.86182e-07 -6.11612e-08 0
-9.00887e-08 -2.48971e-08 0
-5.20395e-08 -2.29577e-08 0
-1.28621e-07 -2.70827e-08 0
-1.20181e-07 -5.6457e-09 0
-9.1239e-08 -2.47245e-08 0
-9.13816e-08 -2.46269e-08 0
-1.19857e-07 -5.60132e-09 0
-1.04256e-07 -5.43722e-09 0
-1.04052e-09 -2.72276e-13 0
-8.87028e-08 -4.51839e-09 0
-1.03801e-07 -5.35701e-09 0
1.3727e-05 -2.53873e-07 0
1.86898e-05 -2.32834e-09 0
2.0483e-05 -3.98843e-07 0
9.30373e-06 -2.45044e-07 0
5.77978e-06 -2.44783e-07 0
6.20546e-06 -1.16804e-07 0
1.48058e-05 -5.83239e-07 0
9.35783e-06 -2.46407e-07 0
1.36791e-05 -2.55119e-07 0
9.22526e-06 -4.7488e-07 0
5.78847e-06 -2.45797e-07 0
9.31509e-06 -2.46342e-07 0
1.18742e-05 -7.48433e-10 0
1.86582e-05 -1.09402e-09 0
1.37004e-05 -2.52509e-07 0
-1.09895e-09 4.41279e-13 0
-1.03953e-07 -5.36183e-09 0
-1.1937e-07 -5.51871e-09 0
-3.64276e-07 -1.20045e-07 0
-1.6865e-08 -2.10149e-07 0
-2.89067e-07 -2.13197e-07 0
-4.05915e-07 -4.3275e-08 0
-3.66342e-07 -1.1901e-07 0
-4.86434e-07 -6.89442e-08 0
-3.17513e-07 -1.35589e-08 0
-4.05588e-07 -4.29575e-08 0
-4.86463e-07 -6.85371e-08 0
-2.69302e-07 -1.15662e-08 0
-3.48546e-07 -5.91226e-08 0
-4.04955e-07 -4.29194e-08 0
-3.48076e-07 -5.99098e-08 0
-1.80739e-08 -2.09473e-07 0
-3.64432e-07 -1.19543e-07 0
-1.10417e-09 -2.88715e-13 0
-2.48738e-07 -1.23874e-08 0
-1.19579e-09 -1.48408e-12 0
-2.68496e-07 -3.68404e-08 0
-1.30733e-07 -8.30423e-08 0
-1.96451e-07 -1.01029e-07 0
-1.84445e-07 -9.82011e-09 0
-1.94365e-07 -3.74995e-08 0
-2.6813e-07 -3.64356e-08 0
-8.11794e-10 6.42936e-13 0
-1.82965e-07 -9.56771e-09 0
-8.84736e-10 -5.14729e-13 0
-1.70913e-09 -9.92455e-13 0
-1.62378e-07 -1.06257e-08 0
-1.83244e-07 -9.63518e-09 0
-1.965e-07 -1.01502e-07 0
-1.73281e-08 -2.09373e-07 0
-3.47635e-07 -5.98747e-08 0
-2.68862e-07 -3.67762e-08 0
-1.9743e-07 -1.0094e-07 0
-3.47446e-07 -5.94373e-08 0
8.97111e-08 -1.90146e-07 0
-1.48302e-08 -2.09964e-07 0
-1.95133e-07 -1.01905e-07 0
2.7775e-07 -1.82416e-07 0
9.06793e-08 -1.90056e-07 0
-1.94432e-07 -1.01863e-07 0
6.23477e-07 -4.16199e-07 0
2.71058e-06 -7.54314e-07 0
1.53614e-06 -6.73727e-07 0
7.55905e-07 -3.14986e-07 0
1.11721e-06 -4.40902e-07 0
-9.78501e-09 -2.11458e-07 0
7.63006e-07 -3.1605e-07 0
2.27697e-06 -5.55253e-07 0
1.12568e-06 -4.42192e-07 0
2.8116e-07 -1.83083e-07 0
7.53299e-07 -3.13991e-07 0
9.36833e-08 -1.9077e-07 0
2.84722e-07 -1.83307e-07 0
7.92754e-07 -2.18721e-07 0
1.39077e-06 -3.51877e-07 0
1.29512e-06 -2.30919e-07 0
7.9295e-07 -2.18154e-07 0
3.95459e-07 -1.28617e-07 0
-1.83304e-07 -6.93948e-09 0
-1.84139e-07 -9.74521e-09 0
-2.68381e-07 -3.62933e-08 0
-1.62072e-07 -1.0607e-08 0
-1.45585e-09 -1.34615e-12 0
-1.19655e-07 -5.53451e-09 0
-1.83985e-07 -9.7653e-09 0
-1.62818e-07 -1.07555e-08 0
-1.94154e-07 -3.73817e-08 0
-8.99168e-10 -1.40903e-12 0
-8.2537e-10 -8.92521e-15 0
-1.62039e-07 -1.05578e-08 0
2.29563e-06 -5.58167e-07 0
4.67479e-06 -9.04134e-07 0
2.72805e-06 -7.5564e-07 0
1.3981e-06 -3.53511e-07 0
2.27799e-06 -5.54852e-07 0
7.63864e-07 -3.15811e-07 0
2.84503e-07 -1.83547e-07 0
1.39075e-06 -3.5228e-07 0
7.58e-07 -3.14594e-07 0
7.98364e-07 -2.19328e-07 0
2.20794e-06 -3.85913e-07 0
1.39804e-06 -3.52659e-07 0
3.39784e-06 -6.0529e-07 0
4.67736e-06 -9.03458e-07 0
2.29767e-06 -5.57751e-07 0
1.40575e-06 -3.54371e-07 0
3.38586e-06 -6.0348e-07 0
2.28768e-06 -5.55949e-07 0
2.22649e-06 -3.87886e-07 0
4.47082e-06 -5.87037e-07 0
3.39694e-06 -6.03703e-07 0
-1.19304e-07 -5.484e-09 0
-6.32316e-10 -1.17245e-12 0
-5.81066e-10 -1.74619e-13 0
-5.32885e-10 9.01173e-13 0
-1.19204e-07 -5.48193e-09 0
-5.80733e-10 -1.6766e-13 0
-1.29055e-07 -2.70267e-08 0
-1.62408e-07 -1.07243e-08 0
-1.20093e-07 -5.61474e-09 0
3.92052e-07 -1.28256e-07 0
7.88362e-07 -2.17675e-07 0
9.88106e-08 -1.09848e-07 0
1.04768e-07 -6.79757e-08 0
3.8868e-07 -1.27536e-07 0
-7.02612e-08 -5.55111e-08 0
1.06813e-07 -6.82004e-08 0
6.76839e-07 -1.30496e-07 0
3.91754e-07 -1.27839e-07 0
1.67905e-06 -2.14157e-07 0
1.29954e-06 -2.30892e-07 0
6.84763e-07 -1.31265e-07 0
7.83551e-07 -1.10621e-07 0
1.67679e-06 -2.1367e-07 0
6.83359e-07 -1.30921e-07 0
3.32245e-06 -3.13954e-07 0
5.22495e-06 -5.12906e-07 0
2.84275e-06 -3.65233e-07 0
2.20741e-06 -3.854e-07 0
7.98196e-07 -2.19004e-07 0
1.30152e-06 -2.31738e-07 0
-1.30904e-07 -8.28001e-08 0
-2.68173e-07 -3.66858e-08 0
-1.94046e-07 -3.774e-08 0
-7.1834e-08 -5.53499e-08 0
9.39639e-08 -1.08958e-07 0
-1.9321e-07 -3.78633e-08 0
2.76485e-07 -1.81992e-07 0
-1.94817e-07 -1.01549e-07 0
-1.29088e-07 -8.34924e-08 0
5.76651e-06 -4.01448e-07 0
8.774e-06 -6.83066e-07 0
5.25343e-06 -5.1441e-07 0
3.49112e-06 -2.33227e-07 0
5.74138e-06 -3.99353e-07 0
3.32606e-06 -3.1326e-07 0
8.78262e-06 -6.84679e-07 0
7.9978e-06 -8.22647e-07 0
5.25986e-06 -5.15647e-07 0
9.22347e-06 -4.77113e-07 0
8.78895e-06 -6.82939e-07 0
5.77842e-06 -4.01365e-07 0
9.26552e-06 -4.78007e-07 0
1.48029e-05 -5.86477e-07 0
1.29551e-05 -8.32029e-07 0
5.7781e-06 -2.46207e-07 0
9.21187e-06 -4.75462e-07 0
5.76951e-06 -4.00053e-07 0
1.48374e-05 -5.88285e-07 0
1.91293e-05 -1.12298e-06 0
1.29872e-05 -8.34345e-07 0
2.04686e-05 -4.01162e-07 0
1.48438e-05 -5.84306e-07 0
1.37154e-05 -2.55511e-07 0
2.84251e-05 -1.75396e-09 0
2.05326e-05 -3.98484e-07 0
1.87368e-05 -1.23562e-09 0
2.84973e-05 -6.21573e-09 0
3.4968e-05 -1.09259e-06 0
2.43575e-05 -8.2755e-07 0
2.51784e-05 -2.68526e-06 0
3.54698e-05 -3.69053e-06 0
2.69098e-05 -3.80329e-06 0
1.71054e-05 -1.80824e-06 0
2.50865e-05 -2.67502e-06 0
1.82734e-05 -2.50387e-06 0
1.71194e-05 -1.80632e-06 0
2.28923e-05 -1.82973e-06 0
2.51037e-05 -2.67229e-06 0
2.42625e-05 -8.26632e-07 0
1.48751e-05 -5.86269e-07 0
2.0506e-05 -4.02977e-07 0
1.4015e-05 -1.21088e-06 0
1.91609e-05 -1.12872e-06 0
2.2859e-05 -1.82205e-06 0
1.29337e-05 -8.32286e-07 0
8.8127e-06 -6.84583e-07 0
9.24778e-06 -4.78289e-07 0
1.39857e-05 -1.2077e-06 0
1.29844e-05 -8.36247e-07 0
1.91261e-05 -1.12562e-06 0
1.39503e-05 -1.20564e-06 0
8.82632e-06 -6.86689e-07 0
1.29506e-05 -8.3486e-07 0
1.0419e-05 -1.206e-06 0
1.39701e-05 -1.21093e-06 0
1.70411e-05 -1.79904e-06 0
8.0251e-06 -8.25061e-07 0
8.81119e-06 -6.86658e-07 0
1.39309e-05 -1.20563e-06 0
2.89082e-05 -1.60312e-06 0
3.50092e-05 -1.10448e-06 0
3.49801e-05 -2.4806e-06 0
4.22078e-05 -4.28212e-09 0
3.50308e-05 -1.09049e-06 0
2.85524e-05 -3.0643e-09 0
3.49677e-05 -2.49381e-06 0
3.54989e-05 -3.6855e-06 0
2.52028e-05 -2.68169e-06 0
2.88676e-05 -1.60548e-06 0
3.49343e-05 -2.48292e-06 0
2.29602e-05 -1.82858e-06 0
4.94489e-05 -3.55957e-06 0
3.55799e-05 -3.68961e-06 0
3.50468e-05 -2.49571e-06 0
-1.2875e-07 -2.72011e-08 0
-7.28685e-08 -5.49484e-08 0
-1.6284e-07 -1.0839e-08 0
-2.50757e-07 -1.27138e-08 0
-2.68967e-07 -3.6519e-08 0
-3.47743e-07 -5.90957e-08 0
-7.12706e-10 6.66699e-13 0
-1.81745e-07 -6.77761e-09 0
-7.76068e-10 -1.44727e-13 0
-1.5963e-09 -3.29953e-14 0
-1.834e-07 -9.62298e-09 0
-1.82216e-07 -6.83208e-09 0
2.43081e-05 -8.32624e-07 0
2.88174e-05 -1.59721e-06 0
1.92126e-05 -1.12685e-06 0
2.84474e-05 -4.90737e-09 0
2.43121e-05 -8.25093e-07 0
2.05508e-05 -4.01178e-07 0
3.49692e-05 -1.0989e-06 0
2.8873e-05 -1.59762e-06 0
2.43583e-05 -8.32199e-07 0
6.23761e-06 -8.84903e-07 0
8.05236e-06 -1.27318e-06 0
4.70616e-06 -9.07061e-07 0
7.98586e-06 -8.23768e-07 0
6.23656e-06 -8.82371e-07 0
4.49881e-06 -5.89284e-07 0
1.03648e-05 -1.20331e-06 0
8.07258e-06 -1.27438e-06 0
6.25504e-06 -8.858e-07 0
1.39375e-05 -1.20783e-06 0
1.03911e-05 -1.20277e-06 0
8.02985e-06 -8.26608e-07 0
6.22103e-06 -8.8276e-07 0
4.69171e-06 -9.04763e-07 0
3.40988e-06 -6.06298e-07 0
1.26928e-05 -1.68569e-06 0
8.09284e-06 -1.27718e-06 0
1.03878e-05 -1.20585e-06 0
1.26962e-05 -1.68835e-06 0
1.12536e-05 -1.9188e-06 0
8.0951e-06 -1.27917e-06 0
1.40087e-05 -1.21265e-06 0
2.28512e-05 -1.82482e-06 0
1.70844e-05 -1.80155e-06 0
1.12706e-05 -1.92556e-06 0
1.6484e-05 -2.89841e-06 0
9.65553e-06 -2.12284e-06 0
1.70658e-05 -1.80543e-06 0
1.82319e-05 -2.49995e-06 0
1.27485e-05 -1.69179e-06 0
1.04152e-05 -1.20728e-06 0
1.70365e-05 -1.80101e-06 0
1.27236e-05 -1.68763e-06 0
2.29489e-05 -1.83168e-06 0
3.49205e-05 -2.48753e-06 0
2.51639e-05 -2.6756e-06 0
2.68395e-05 -3.80594e-06 0
2.38878e-05 -4.28185e-06 0
1.65819e-05 -2.91192e-06 0
2.51223e-05 -2.68189e-06 0
2.68507e-05 -3.79817e-06 0
1.8303e-05 -2.51009e-06 0
3.55948e-05 -3.70342e-06 0
5.18642e-05 -5.92236e-06 0
3.77871e-05 -4.8887e-06 0
2.82393e-06 -3.63824e-07 0
1.30613e-06 -2.31704e-07 0
1.6864e-06 -2.14874e-07 0
3.31047e-06 -3.13056e-07 0
2.83158e-06 -3.64146e-07 0
1.69228e-06 -2.1513e-07 0
4.46842e-06 -5.86079e-07 0
2.22498e-06 -3.87212e-07 0
2.83704e-06 -3.65614e-07 0
-2.50514e-07 -1.26471e-08 0
-3.48297e-07 -5.89654e-08 0
-2.68607e-07 -1.14988e-08 0
-1.82531e-07 -6.84041e-09 0
-2.48975e-07 -1.24473e-08 0
-1.94501e-09 -1.37247e-12 0
-1.8349e-07 -6.94634e-09 0
-2.68735e-07 -3.63171e-08 0
-2.49849e-07 -1.25936e-08 0
-7.76504e-10 -1.49928e-13 0
-1.81875e-07 -6.77916e-09 0
-8.42652e-10 -8.83207e-13 0
3.12354e-06 -1.24667e-06 0
5.3308e-06 -1.47672e-06 0
6.73098e-06 -2.00963e-06 0
2.50975e-06 -1.35441e-06 0
3.11481e-06 -1.24627e-06 0
6.71932e-06 -2.00928e-06 0
8.29521e-07 -6.53907e-07 0
1.5364e-06 -6.75228e-07 0
2.45728e-06 -9.62451e-07 0
-8.32404e-07 -2.04979e-07 0
-3.2889e-07 -3.86808e-07 0
-4.78194e-07 -4.40483e-07 0
6.14608e-07 -4.13733e-07 0
-1.03112e-08 -2.11675e-07 0
1.11676e-06 -4.41289e-07 0
-2.68653e-07 -1.147e-08 0
-4.05032e-07 -4.27434e-08 0
-3.16334e-07 -1.34376e-08 0
-4.0552e-07 -4.32522e-08 0
-3.48442e-07 -5.95024e-08 0
-3.65738e-07 -1.18957e-07 0
-1.10474e-09 -3.79671e-14 0
-2.66585e-07 -1.12413e-08 0
-1.19428e-09 -8.61999e-13 0
-2.29864e-09 -1.78654e-12 0
-2.49368e-07 -1.24671e-08 0
-2.67125e-07 -1.13204e-08 0
-3.17665e-07 -1.35563e-08 0
-4.86893e-07 -6.85435e-08 0
-5.03145e-07 -4.37398e-08 0
-1.25886e-09 2.61872e-13 0
-3.14345e-07 -1.31933e-08 0
-1.35809e-09 -7.55867e-13 0
-2.45138e-09 -8.72921e-13 0
-2.67419e-07 -1.13234e-08 0
-3.14926e-07 -1.32747e-08 0
4.79084e-05 -1.7113e-06 0
3.50928e-05 -1.09652e-06 0
4.22778e-05 -9.43139e-09 0
6.14046e-05 -7.04573e-09 0
4.79984e-05 -1.70925e-06 0
4.23603e-05 -5.15267e-09 0
6.77961e-05 -2.38702e-06 0
4.9605e-05 -3.55365e-06 0
4.80404e-05 -1.72802e-06 0
4.72168e-05 -8.69029e-06 0
2.97756e-05 -6.70639e-06 0
3.1728e-05 -6.01035e-06 0
6.46268e-05 -9.07926e-06 0
4.7374e-05 -8.7009e-06 0
4.13385e-05 -6.34684e-06 0
7.30073e-05 -1.22674e-05 0
5.72472e-05 -1.17349e-05 0
4.74476e-05 -8.72704e-06 0
6.78405e-05 -2.37289e-06 0
4.80775e-05 -1.71759e-06 0
6.1497e-05 -1.43599e-08 0
-3.19446e-07 -1.0938e-08 0
-5.03504e-07 -4.36735e-08 0
-5.83362e-07 -5.09471e-08 0
-1.19256e-09 2.14726e-13 0
-3.15759e-07 -1.06368e-08 0
-1.28342e-09 -4.42365e-13 0
-3.16677e-07 -1.34329e-08 0
-5.02708e-07 -4.35179e-08 0
-3.18388e-07 -1.08626e-08 0
-2.54926e-09 -8.09061e-13 0
-3.15215e-07 -1.32736e-08 0
-3.16604e-07 -1.07164e-08 0
-6.0712e-07 -1.5832e-07 0
-6.80731e-07 -2.09275e-07 0
-7.26861e-07 -9.22556e-08 0
-2.92184e-07 -2.13016e-07 0
-6.05182e-07 -1.5844e-07 0
-5.5696e-07 -1.17795e-07 0
-2.7262e-07 -3.16495e-07 0
-6.79101e-07 -2.10079e-07 0
-6.0589e-07 -1.5901e-07 0
-2.90822e-07 -2.13686e-07 0
-2.70962e-07 -3.16496e-07 0
-6.04806e-07 -1.59032e-07 0
2.5773e-07 -4.19434e-07 0
8.1556e-07 -6.50661e-07 0
-2.65272e-07 -3.18745e-07 0
1.45582e-06 -9.50794e-07 0
3.26573e-07 -6.28853e-07 0
8.22828e-07 -6.5368e-07 0
-6.07433e-07 -1.5771e-07 0
-7.2609e-07 -9.17831e-08 0
-5.85573e-07 -5.15361e-08 0
-8.3227e-07 -2.04358e-07 0
-6.80217e-07 -2.10417e-07 0
-3.30142e-07 -3.85951e-07 0
-8.33073e-07 -2.03381e-07 0
-7.27582e-07 -9.23563e-08 0
-6.81499e-07 -2.09441e-07 0
6.80933e-05 -2.3816e-06 0
8.81094e-05 -2.09269e-08 0
9.962e-05 -3.66126e-06 0
-6.45795e-07 -1.58687e-08 0
-6.21015e-07 -1.63633e-08 0
-1.24832e-06 -9.86697e-08 0
-6.17544e-07 -1.24832e-08 0
-6.44812e-07 -1.5793e-08 0
-1.11513e-06 -5.81163e-08 0
-2.4206e-09 -4.75597e-13 0
-2.30126e-09 -5.39125e-13 0
-6.147e-07 -1.59875e-08 0
6.255e-06 -8.84537e-07 0
8.00668e-06 -8.25675e-07 0
1.03643e-05 -1.20151e-06 0
3.40939e-06 -6.0541e-07 0
4.48498e-06 -5.886e-07 0
6.22002e-06 -8.81491e-07 0
2.21522e-06 -3.85975e-07 0
1.30753e-06 -2.32182e-07 0
2.82616e-06 -3.64507e-07 0
1.43062e-05 -5.58216e-06 0
2.32367e-05 -9.06794e-06 0
1.71507e-05 -6.89587e-06 0
7.90174e-06 -3.20719e-06 0
1.42247e-05 -5.55012e-06 0
8.6885e-06 -3.08925e-06 0
1.7371e-05 -6.71278e-06 0
2.32366e-05 -9.06504e-06 0
1.43064e-05 -5.58301e-06 0
7.64296e-06 -3.38854e-06 0
1.72863e-05 -6.68351e-06 0
7.90527e-06 -3.21272e-06 0
4.45482e-06 -2.71976e-06 0
9.72636e-06 -4.2471e-06 0
5.74213e-06 -2.98074e-06 0
1.66843e-05 -6.32597e-06 0