# vtk DataFile Version 1.0
2D Unstructured Grid of Linear Triangles
ASCII
 
DATASET UNSTRUCTURED_GRID
POINTS 23178 float
119.903 32.6027 0
119.999 32.6791 0
119.849 32.7737 0
119.999 32.5003 0
119.903 32.6012 0
119.834 32.5003 0
120 32.5009 0
120 32.6782 0
119.904 32.6018 0
119.744 32.6258 0
119.833 32.5008 0
119.902 32.6016 0
119.771 32.9693 0
119.999 32.8832 0
119.999 33.1115 0
119.77 32.9678 0
119.667 32.7612 0
119.848 32.7752 0
119.744 32.6267 0
119.902 32.6025 0
119.849 32.7735 0
119.832 32.5004 0
119.743 32.6254 0
119.667 32.5004 0
119.999 32.68 0
119.999 32.8811 0
119.85 32.7746 0
119.742 32.626 0
119.518 32.6625 0
119.666 32.501 0
119.848 32.774 0
119.667 32.76 0
119.743 32.6272 0
119.538 32.89 0
119.518 32.6642 0
119.665 32.7605 0
119.537 32.8915 0
119.36 33.0682 0
119.356 32.8174 0
119.319 32.6374 0
119.516 32.6636 0
119.356 32.8152 0
119.769 32.9704 0
119.76 33.208 0
119.572 33.0998 0
119.999 32.8821 0
119.771 32.9682 0
119.849 32.7756 0
119.999 33.114 0
119.999 33.3735 0
119.762 33.2094 0
119.742 32.6268 0
119.666 32.7597 0
119.518 32.6634 0
119.739 33.6493 0
119.999 33.3768 0
119.999 33.6715 0
119.471 33.3085 0
119.695 33.4208 0
119.457 33.5837 0
119.762 33.208 0
119.771 32.9704 0
119.998 33.1126 0
119.472 33.3073 0
119.76 33.2102 0
119.696 33.4195 0
119.57 33.0991 0
119.36 33.0691 0
119.537 32.8924 0
119.471 33.3062 0
119.571 33.1009 0
119.759 33.2091 0
119.47 33.3057 0
119.36 33.0705 0
119.57 33.1004 0
119.516 32.6625 0
119.32 32.6363 0
119.499 32.501 0
119.666 32.5005 0
119.518 32.6621 0
119.501 32.5005 0
119.537 32.8901 0
119.357 32.8161 0
119.517 32.6644 0
119.318 32.6358 0
119.168 32.5005 0
119.333 32.5005 0
119.499 32.5005 0
119.319 32.6358 0
119.334 32.5005 0
119.355 32.8156 0
119.164 32.793 0
119.318 32.6378 0
119.998 33.376 0
119.738 33.6485 0
119.697 33.4212 0
118.922 32.6304 0
118.834 32.5004 0
118.999 32.5004 0
119.119 32.6352 0
118.923 32.6309 0
119 32.5009 0
118.821 32.7829 0
118.722 32.6324 0
118.921 32.6318 0
118.995 32.7742 0
118.978 32.9486 0
118.822 32.7844 0
119.119 32.6362 0
118.996 32.7727 0
118.923 32.6318 0
119.162 32.7939 0
118.979 32.9487 0
118.997 32.7743 0
119.12 32.6367 0
119.162 32.7929 0
118.997 32.7732 0
119.166 32.5005 0
119.12 32.6348 0
119.001 32.5005 0
119.167 32.5009 0
119.317 32.6362 0
119.121 32.6353 0
119.355 32.8176 0
119.358 33.0684 0
119.199 32.957 0
118.757 32.9572 0
118.544 32.9454 0
118.631 32.7766 0
118.922 32.6323 0
118.995 32.7732 0
118.822 32.7834 0
118.652 33.1464 0
118.545 32.9466 0
118.757 32.9585 0
119.761 33.2104 0
119.998 33.3745 0
119.697 33.4198 0
118.16 33.0117 0
118.207 33.2357 0
117.937 33.1303 0
118.108 32.7939 0
118.16 33.0096 0
117.964 32.9237 0
118.314 32.8762 0
118.396 33.0887 0
118.162 33.0104 0
117.963 32.9249 0
118.159 33.0107 0
117.936 33.1292 0
118.268 32.6624 0
118.313 32.874 0
118.11 32.7926 0
118.398 33.0906 0
118.651 33.1481 0
118.479 33.3186 0
118.442 32.7724 0
118.542 32.9451 0
118.315 32.8749 0
118.443 32.772 0
118.63 32.776 0
118.543 32.9448 0
118.29 33.5128 0
118.085 33.71 0
118.019 33.4031 0
119.743 33.9177 0
119.738 33.6511 0
119.998 33.6733 0
119.999 34.3929 0
119.617 34.2055 0
119.999 34.0129 0
119.428 33.8826 0
119.737 33.6518 0
119.741 33.9184 0
119.736 33.6492 0
119.458 33.5849 0
119.696 33.4219 0
119.999 34.0095 0
119.744 33.9189 0
119.999 33.6745 0
119.427 33.8815 0
119.457 33.5864 0
119.736 33.6507 0
119.381 34.6055 0
119.253 34.2113 0
119.613 34.2068 0
119.077 33.8976 0
119.188 33.6257 0
119.424 33.8824 0
118.746 33.8649 0
118.889 33.6219 0
119.074 33.8975 0
118.424 33.81 0
118.742 33.8663 0
118.582 34.1455 0
118.424 33.8081 0
118.587 33.5784 0
118.743 33.8644 0
119.666 32.7616 0
119.769 32.9682 0
119.539 32.891 0
119.769 32.9693 0
119.571 33.0987 0
119.539 32.8921 0
119.188 33.6229 0
119.253 33.3467 0
119.455 33.5845 0
119.252 33.3444 0
119.011 33.3774 0
119.119 33.143 0
119.456 33.5835 0
119.254 33.3457 0
119.469 33.3083 0
119.187 33.6222 0
119.012 33.379 0
119.252 33.346 0
119.198 32.9561 0
119.164 32.7941 0
119.354 32.8167 0
119.12 33.1406 0
119.198 32.9581 0
119.358 33.0695 0
119.118 33.1409 0
118.889 33.1515 0
118.978 32.9511 0
118.756 33.3683 0
118.888 33.1537 0
119.009 33.3775 0
118.977 32.9492 0
118.759 32.9573 0
118.821 32.785 0
119.197 32.9565 0
118.98 32.9493 0
119.163 32.7946 0
118.888 33.1509 0
118.759 32.9585 0
118.977 32.9505 0
119.01 33.3767 0
118.889 33.1529 0
119.118 33.1423 0
119.359 33.0713 0
119.469 33.3065 0
119.254 33.3439 0
118.889 33.6185 0
118.756 33.3698 0
119.009 33.379 0
118.654 33.1471 0
118.758 32.9591 0
118.887 33.1515 0
119.358 33.0708 0
119.253 33.3434 0
119.12 33.1419 0
119.425 33.8814 0
119.189 33.6247 0
119.456 33.5863 0
118.89 33.6194 0
119.01 33.3799 0
119.186 33.6231 0
119.317 32.6372 0
119.163 32.7924 0
119.121 32.6362 0
118.979 32.9504 0
119.197 32.9577 0
119.119 33.1402 0
119.998 34.3946 0
119.712 34.5238 0
119.616 34.2072 0
119.998 34.0113 0
119.616 34.2039 0
119.743 33.9207 0
117.484 33.1242 0
117.689 33.1141 0
117.753 33.3033 0
118.721 32.631 0
118.667 32.5004 0
118.832 32.5004 0
118.632 32.775 0
118.721 32.6329 0
118.82 32.7834 0
118.758 32.9567 0
118.632 32.7761 0
118.82 32.7845 0
118.443 32.771 0
118.499 32.6249 0
118.63 32.7749 0
118.631 32.7745 0
118.5 32.6245 0
118.719 32.6323 0
118.833 32.5009 0
118.921 32.6309 0
118.722 32.6315 0
119.713 34.5277 0
119.998 34.8309 0
119.679 34.9332 0
119.614 34.2035 0
119.428 33.8844 0
119.741 33.9203 0
119.383 34.6066 0
119.614 34.2079 0
119.71 34.5246 0
119.253 34.2088 0
119.426 33.8854 0
119.613 34.2044 0
119.999 34.3967 0
119.999 34.8291 0
119.714 34.5259 0
118.666 32.5009 0
118.72 32.6314 0
118.5 32.6236 0
117.353 32.9589 0
117.481 33.123 0
117.152 33.0994 0
117.365 32.7737 0
117.352 32.9569 0
117.193 32.8387 0
117.217 32.6493 0
117.364 32.7726 0
117.192 32.8376 0
117.436 32.642 0
117.559 32.8303 0
117.366 32.7726 0
117.559 32.8325 0
117.482 33.1221 0
117.354 32.958 0
117.666 32.5005 0
117.637 32.6519 0
117.501 32.5005 0
117.839 32.7732 0
117.961 32.9235 0
117.731 32.9469 0
118.038 32.6462 0
118.108 32.7922 0
117.84 32.7718 0
118.166 32.5005 0
118.039 32.6443 0
118.001 32.5005 0
118.167 32.501 0
118.267 32.6607 0
118.04 32.6449 0
117.729 32.9478 0
117.483 33.1221 0
117.56 32.8325 0
117.837 32.7729 0
117.73 32.9466 0
117.562 32.8313 0
117.689 33.1129 0
117.484 33.123 0
117.729 32.9487 0
117.934 33.1297 0
117.69 33.1129 0
117.731 32.9488 0
117.31 33.3637 0
117.483 33.7067 0
117.15 33.5849 0
117.752 33.3043 0
117.554 33.4239 0
117.483 33.1253 0
117.753 33.3059 0
117.802 33.5896 0
117.555 33.4254 0
117.934 33.1309 0
117.754 33.3033 0
117.69 33.1141 0
117.937 33.1316 0
118.207 33.237 0
118.018 33.4002 0
118.478 33.3189 0
118.21 33.2366 0
118.396 33.0909 0
117.837 32.6176 0
118.037 32.6456 0
117.839 32.7712 0
118.269 32.6606 0
118.334 32.501 0
118.497 32.6236 0
118.04 32.6459 0
118.267 32.6616 0
118.109 32.7918 0
118.168 32.5005 0
118.333 32.5005 0
118.268 32.6602 0
117.802 33.5926 0
117.801 33.9049 0
117.486 33.7086 0
118.016 33.402 0
117.804 33.5895 0
117.755 33.3058 0
117.935 33.1318 0
118.017 33.4005 0
117.755 33.3042 0
118.208 33.2383 0
118.29 33.5112 0
118.02 33.4015 0
118.083 33.7119 0
117.803 33.9049 0
117.804 33.5926 0
118.018 33.4034 0
118.084 33.7103 0
117.805 33.5909 0
118.291 33.5141 0
118.421 33.8073 0
118.087 33.7113 0
118.498 32.6231 0
118.334 32.5004 0
118.499 32.5004 0
118.666 32.5004 0
118.499 32.6231 0
118.501 32.5004 0
118.442 32.7706 0
118.27 32.6615 0
118.498 32.6246 0
118.395 33.0899 0
118.209 33.2356 0
118.162 33.0116 0
118.542 32.9462 0
118.397 33.0885 0
118.315 32.8759 0
118.543 32.9471 0
118.651 33.1468 0
118.398 33.0894 0
118.753 33.3681 0
118.481 33.3196 0
118.652 33.149 0
118.887 33.1529 0
118.755 33.3675 0
118.653 33.1484 0
118.887 33.6209 0
118.744 33.8638 0
118.589 33.5778 0
118.292 33.5109 0
118.209 33.238 0
118.478 33.3203 0
117.963 32.923 0
117.84 32.7727 0
118.107 32.7931 0
118.313 32.8752 0
118.161 33.0094 0
118.109 32.7937 0
117.935 33.129 0
117.732 32.9481 0
117.962 32.9247 0
119.074 33.8994 0
118.893 34.1907 0
118.746 33.8668 0
119.186 33.6248 0
119.075 33.8967 0
118.89 33.6211 0
118.892 34.1915 0
118.583 34.1468 0
118.744 33.8676 0
119.249 34.2089 0
118.895 34.1918 0
119.075 33.9005 0
119.251 34.2122 0
119.379 34.6065 0
119.021 34.4994 0
119.424 33.8844 0
119.251 34.2078 0
119.077 33.8995 0
119.379 34.6088 0
119.048 34.8795 0
119.021 34.5016 0
119.677 34.9325 0
119.383 34.609 0
119.711 34.527 0
119.999 35.3242 0
119.68 34.9359 0
119.999 34.8336 0
119.996 35.3275 0
119.444 35.6136 0
119.426 35.1394 0
118.218 35.2509 0
118.161 35.7071 0
117.634 35.3924 0
118.343 34.8113 0
118.219 35.2463 0
117.855 34.9272 0
118.345 34.8118 0
118.675 35.102 0
118.222 35.2469 0
119.425 35.1348 0
119.382 34.6111 0
119.676 34.9345 0
118.679 34.5922 0
119.045 34.8814 0
118.679 35.1001 0
119.02 34.498 0
118.895 34.1938 0
119.249 34.2109 0
118.68 34.5902 0
119.018 34.5016 0
119.046 34.8794 0
118.679 34.5879 0
118.893 34.1951 0
119.018 34.4993 0
118.343 34.3657 0
118.675 34.5895 0
118.346 34.8072 0
118.583 34.1492 0
118.891 34.1939 0
118.678 34.5867 0
119.042 35.3687 0
119.438 35.6155 0
118.743 35.6445 0
119.998 35.8871 0
119.445 35.6161 0
119.998 35.33 0
118.736 35.6444 0
118.165 35.7079 0
118.221 35.2517 0
119.04 35.367 0
118.74 35.6428 0
118.679 35.1052 0
118.655 36.1844 0
118.167 35.7111 0
118.737 35.6476 0
118.441 32.7714 0
118.314 32.8739 0
118.269 32.6623 0
117.638 32.6539 0
117.837 32.7719 0
117.561 32.8303 0
117.999 32.5004 0
117.836 32.6162 0
117.834 32.5004 0
118 32.5009 0
118.038 32.6447 0
117.837 32.6167 0
119.422 35.1371 0
119.043 35.3646 0
119.048 34.8841 0
119.997 35.3252 0
119.427 35.1372 0
119.678 34.9369 0
119.44 35.6138 0
119.045 35.367 0
119.423 35.1396 0
118.194 34.0206 0
117.911 34.2204 0
117.803 33.908 0
118.58 34.1461 0
118.199 34.0201 0
118.422 33.8105 0
118.34 34.3619 0
117.913 34.2219 0
118.196 34.0221 0
118.676 34.5873 0
118.344 34.3635 0
118.581 34.1498 0
118.195 34.0189 0
117.804 33.9063 0
118.084 33.7134 0
118.05 34.5594 0
117.912 34.2237 0
118.34 34.3637 0
[...]
POINT_DATA 23178
VECTORS velocity float
1.09147e-05 3.27219e-09 0
1.9028e-05 7.86648e-11 0
2.90991e-05 3.61014e-08 0
3.60649e-08 -1.61093e-11 0
1.0754e-05 3.1647e-09 0
3.60992e-08 3.1893e-12 0
9.94699e-08 -1.60362e-11 0
1.89308e-05 2.49754e-11 0
1.08174e-05 3.18648e-09 0
1.33906e-05 1.37528e-08 0
8.08502e-08 5.75178e-12 0
1.07988e-05 3.23915e-09 0
4.99103e-05 1.12879e-07 0
4.07133e-05 4.36371e-10 0
6.49741e-05 7.65725e-10 0
4.9748e-05 1.12735e-07 0
2.78222e-05 5.56157e-08 0
2.92585e-05 3.6795e-08 0
1.3488e-05 1.39342e-08 0
1.08961e-05 3.30592e-09 0
2.90807e-05 3.62316e-08 0
4.47513e-08 2.3429e-12 0
1.33546e-05 1.37035e-08 0
4.48801e-08 9.01427e-12 0
1.91273e-05 5.41801e-11 0
4.04907e-05 2.31934e-10 0
2.91984e-05 3.62637e-08 0
1.34128e-05 1.38431e-08 0
1.73597e-05 2.60761e-08 0
1.02916e-07 1.8743e-11 0
2.9137e-05 3.65197e-08 0
2.77007e-05 5.52131e-08 0
1.35445e-05 1.40705e-08 0
4.15613e-05 1.00346e-07 0
1.75466e-05 2.66079e-08 0
2.77557e-05 5.54877e-08 0
4.17256e-05 1.00786e-07 0
6.04848e-05 8.63401e-08 0
3.39032e-05 5.70672e-08 0
1.47222e-05 1.44199e-08 0
1.74766e-05 2.63874e-08 0
3.3669e-05 5.64907e-08 0
5.00223e-05 1.13803e-07 0
7.52537e-05 1.79248e-07 0
6.38148e-05 1.61588e-07 0
4.05935e-05 6.67096e-10 0
4.97907e-05 1.12573e-07 0
2.93013e-05 3.66693e-08 0
6.52336e-05 9.12165e-10 0
9.28052e-05 1.13815e-09 0
7.54013e-05 1.79003e-07 0
1.35052e-05 1.40287e-08 0
2.76615e-05 5.51389e-08 0
1.74523e-05 2.63503e-08 0
0.000122072 1.53016e-07 0
9.31598e-05 1.49062e-09 0
0.000124474 1.30034e-09 0
8.59053e-05 1.14849e-07 0
9.78329e-05 1.97453e-07 0
0.000114955 -6.54464e-08 0
7.52579e-05 1.78897e-07 0
5.00264e-05 1.13474e-07 0
6.50899e-05 1.67607e-09 0
8.5773e-05 1.1589e-07 0
7.54869e-05 1.79879e-07 0
9.77e-05 1.97668e-07 0
6.37384e-05 1.61076e-07 0
6.05848e-05 8.66793e-08 0
4.18257e-05 1.01175e-07 0
8.56599e-05 1.1582e-07 0
6.39345e-05 1.61655e-07 0
7.53735e-05 1.79744e-07 0
8.56105e-05 1.15017e-07 0
6.07314e-05 8.65523e-08 0
6.38854e-05 1.61313e-07 0
1.7364e-05 2.60727e-08 0
1.46094e-05 1.42203e-08 0
1.07043e-07 2.68523e-11 0
5.80362e-08 9.29983e-12 0
1.7315e-05 2.59459e-08 0
5.82274e-08 1.184e-11 0
4.15815e-05 1.00336e-07 0
3.3759e-05 5.68094e-08 0
1.75668e-05 2.66508e-08 0
1.45516e-05 1.4068e-08 0
4.90674e-08 -5.60967e-12 0
4.89534e-08 3.90987e-12 0
4.88151e-08 1.46e-11 0
1.45513e-05 1.40882e-08 0
4.89525e-08 3.97769e-12 0
3.37155e-05 5.64198e-08 0
3.13379e-05 1.89326e-08 0
1.47688e-05 1.44755e-08 0
9.30706e-05 2.99109e-09 0
0.000121983 1.52983e-07 0
9.78799e-05 1.97806e-07 0
1.40033e-05 -4.03338e-09 0
4.71837e-08 -4.30018e-12 0
4.72136e-08 9.91941e-12 0
1.45202e-05 5.83273e-09 0
1.40518e-05 -4.02165e-09 0
9.59963e-08 4.41905e-12 0
3.01892e-05 -5.52833e-08 0
1.41823e-05 -1.51234e-08 0
1.41514e-05 -4.17413e-09 0
2.93284e-05 -1.38453e-08 0
4.77583e-05 -8.15411e-08 0
3.03519e-05 -5.5729e-08 0
1.46178e-05 5.89952e-09 0
2.91634e-05 -1.3418e-08 0
1.41492e-05 -4.08562e-09 0
3.14338e-05 1.85332e-08 0
4.77622e-05 -8.09949e-08 0
2.9332e-05 -1.36121e-08 0
1.46755e-05 5.97229e-09 0
3.13225e-05 1.85769e-08 0
2.92209e-05 -1.33519e-08 0
4.87347e-08 8.12702e-12 0
1.44733e-05 5.83343e-09 0
4.87838e-08 -5.51244e-12 0
9.78011e-08 2.77248e-12 0
1.46001e-05 1.41385e-08 0
1.4522e-05 5.91337e-09 0
3.39268e-05 5.69574e-08 0
6.0508e-05 8.58077e-08 0
4.87145e-05 2.17213e-08 0
4.84813e-05 -2.11546e-07 0
4.69675e-05 -3.2177e-07 0
2.94127e-05 -9.63218e-08 0
1.4202e-05 -4.16541e-09 0
2.92157e-05 -1.36995e-08 0
3.02395e-05 -5.52917e-08 0
6.80056e-05 -5.9612e-07 0
4.70966e-05 -3.2365e-07 0
4.86112e-05 -2.12833e-07 0
7.55105e-05 1.79493e-07 0
9.29143e-05 2.64038e-09 0
9.77241e-05 1.97941e-07 0
5.29448e-05 -7.27274e-07 0
7.57776e-05 -1.45667e-06 0
6.40713e-05 -1.35948e-06 0
3.05725e-05 -2.49775e-07 0
5.27237e-05 -7.21189e-07 0
4.3468e-05 -5.99261e-07 0
3.94089e-05 -3.23367e-07 0
6.14517e-05 -7.34505e-07 0
5.28139e-05 -7.21988e-07 0
4.35799e-05 -6.02745e-07 0
5.28364e-05 -7.24869e-07 0
6.39639e-05 -1.35585e-06 0
1.71289e-05 -6.23852e-08 0
3.91853e-05 -3.19823e-07 0
3.04387e-05 -2.47125e-07 0
6.16563e-05 -7.37448e-07 0
6.81771e-05 -6.01243e-07 0
8.52313e-05 -1.3261e-06 0
2.87982e-05 -1.37217e-07 0
4.69342e-05 -3.22537e-07 0
3.92796e-05 -3.20519e-07 0
2.87646e-05 -1.36629e-07 0
2.93465e-05 -9.60941e-08 0
4.69013e-05 -3.21421e-07 0
0.000104065 -2.60426e-06 0
0.000122404 -4.51985e-06 0
9.15801e-05 -2.62727e-06 0
0.00015054 4.02449e-09 0
0.000122265 1.5222e-07 0
0.000124667 2.72967e-09 0
0.00020112 -1.12782e-09 0
0.000180864 -6.13278e-07 0
0.000160745 1.12064e-09 0
0.000146417 -5.39836e-07 0
0.000122338 1.51377e-07 0
0.000150614 1.56926e-09 0
0.000122057 1.52222e-07 0
0.000115076 -6.52017e-08 0
9.79541e-05 1.97484e-07 0
0.000160388 6.74957e-10 0
0.000150669 4.00488e-09 0
0.000124795 1.43426e-09 0
0.000146298 -5.40354e-07 0
0.000115238 -6.79245e-08 0
0.00012222 1.51417e-07 0
0.000222381 -2.97331e-06 0
0.000180454 -2.1148e-06 0
0.000181001 -6.30179e-07 0
0.000147044 -1.7229e-06 0
0.000118975 -6.40543e-07 0
0.000146393 -5.50271e-07 0
0.000142243 -2.91162e-06 0
0.000117802 -1.40903e-06 0
0.000147025 -1.7351e-06 0
0.00013479 -3.92868e-06 0
0.000142376 -2.9324e-06 0
0.000169886 -5.49057e-06 0
0.000134598 -3.91626e-06 0
0.000112177 -2.10627e-06 0
0.000142181 -2.92264e-06 0
2.78639e-05 5.58016e-08 0
4.97897e-05 1.13114e-07 0
4.16694e-05 1.00785e-07 0
4.991e-05 1.13612e-07 0
6.37026e-05 1.61247e-07 0
4.17897e-05 1.01164e-07 0
0.00011868 -6.33278e-07 0
8.98085e-05 -1.23772e-07 0
0.000115037 -6.96711e-08 0
8.95654e-05 -1.23908e-07 0
9.26992e-05 -5.27339e-07 0
6.82877e-05 -1.05006e-07 0
0.000114927 -6.73047e-08 0
8.96983e-05 -1.2165e-07 0
8.58782e-05 1.13827e-07 0
0.000118605 -6.35382e-07 0
9.28674e-05 -5.29779e-07 0
8.97346e-05 -1.25046e-07 0
4.86171e-05 2.15714e-08 0
3.14514e-05 1.89084e-08 0
3.38292e-05 5.66295e-08 0
6.80444e-05 -1.02538e-07 0
4.8829e-05 2.12535e-08 0
6.06226e-05 8.54127e-08 0
6.80692e-05 -1.04746e-07 0
6.89454e-05 -3.41059e-07 0
4.8017e-05 -8.25508e-08 0
9.11868e-05 -9.6957e-07 0
6.91721e-05 -3.45228e-07 0
9.2707e-05 -5.31691e-07 0
4.78225e-05 -8.22843e-08 0
4.84878e-05 -2.10375e-07 0
3.04165e-05 -5.61864e-08 0
4.8664e-05 2.09716e-08 0
4.7827e-05 -8.0972e-08 0
3.14988e-05 1.86888e-08 0
6.88798e-05 -3.41512e-07 0
4.86166e-05 -2.11555e-07 0
4.79519e-05 -8.28356e-08 0
9.26301e-05 -5.28285e-07 0
6.90946e-05 -3.42891e-07 0
6.82194e-05 -1.05636e-07 0
6.08178e-05 8.60361e-08 0
8.56965e-05 1.14069e-07 0
8.95173e-05 -1.20569e-07 0
0.00011745 -1.39862e-06 0
9.1348e-05 -9.73732e-07 0
9.28697e-05 -5.34447e-07 0
6.80792e-05 -5.9624e-07 0
4.86844e-05 -2.12899e-07 0
6.89472e-05 -3.43567e-07 0
6.07594e-05 8.55013e-08 0
8.94583e-05 -1.21554e-07 0
6.81804e-05 -1.03268e-07 0
0.000146285 -5.4494e-07 0
0.000118869 -6.35495e-07 0
0.000115227 -7.05438e-08 0
0.000117543 -1.39729e-06 0
9.29609e-05 -5.3348e-07 0
0.000118698 -6.40044e-07 0
1.47047e-05 1.43363e-08 0
3.1274e-05 1.87573e-08 0
1.46266e-05 5.98584e-09 0
4.79491e-05 -8.16669e-08 0
4.87866e-05 2.07585e-08 0
6.80015e-05 -1.03385e-07 0
0.000201302 -1.98286e-09 0
0.000214765 -8.62567e-07 0
0.000181044 -6.19523e-07 0
0.000160577 1.79084e-09 0
0.000180694 -6.1326e-07 0
0.000150856 1.46123e-09 0
6.12018e-05 -1.80557e-06 0
6.13094e-05 -1.54598e-06 0
8.01449e-05 -2.52444e-06 0
1.40346e-05 -1.48336e-08 0
4.73022e-08 7.7652e-13 0
4.74169e-08 1.4384e-11 0
2.92421e-05 -9.49402e-08 0
1.42332e-05 -1.52851e-08 0
3.02396e-05 -5.5721e-08 0
4.84258e-05 -2.10432e-07 0
2.93566e-05 -9.57152e-08 0
3.03545e-05 -5.61869e-08 0
2.86521e-05 -1.3555e-07 0
1.33154e-05 -2.49508e-08 0
2.92334e-05 -9.53324e-08 0
2.91852e-05 -9.47848e-08 0
1.32664e-05 -2.47248e-08 0
1.41762e-05 -1.52117e-08 0
9.45994e-08 9.83666e-12 0
1.40503e-05 -4.10626e-09 0
1.40814e-05 -1.48974e-08 0
0.000215178 -8.69081e-07 0
0.000247662 -7.95093e-09 0
0.000258079 -2.00353e-06 0
0.000180646 -6.18432e-07 0
0.000146611 -5.44345e-07 0
0.000150809 -2.46678e-10 0
0.000222498 -2.96728e-06 0
0.000181115 -6.27285e-07 0
0.000214837 -8.72787e-07 0
0.000180201 -2.10488e-06 0
0.00014671 -5.50486e-07 0
0.000180745 -6.25328e-07 0
0.000201524 -8.4635e-10 0
0.000247471 -3.65405e-09 0
0.000214989 -8.61097e-07 0
9.17721e-08 1.58191e-11 0
1.40783e-05 -1.49866e-08 0
1.31691e-05 -2.43551e-08 0
4.46782e-05 -1.05679e-06 0
6.10686e-05 -1.80179e-06 0
5.68413e-05 -1.96489e-06 0
2.68735e-05 -3.77965e-07 0
4.44817e-05 -1.04769e-06 0
3.25652e-05 -6.27796e-07 0
1.45122e-05 -1.22381e-07 0
2.67721e-05 -3.75219e-07 0
3.24656e-05 -6.2414e-07 0
1.41248e-05 -9.87474e-08 0
3.29615e-05 -4.90646e-07 0
2.67727e-05 -3.74709e-07 0
3.31809e-05 -4.97194e-07 0
6.09904e-05 -1.79535e-06 0
4.45986e-05 -1.05201e-06 0
5.21335e-08 1.181e-13 0
1.53835e-05 -9.95403e-08 0
5.1393e-08 -1.90463e-11 0
2.79607e-05 -2.76628e-07 0
4.34333e-05 -5.99666e-07 0
4.50445e-05 -7.99136e-07 0
1.52499e-05 -6.60615e-08 0
3.0394e-05 -2.47041e-07 0
2.78176e-05 -2.73401e-07 0
5.12409e-08 1.53804e-11 0
1.50555e-05 -6.43336e-08 0
5.07615e-08 -2.20555e-12 0
1.08095e-07 -8.87406e-14 0
1.6946e-05 -6.10996e-08 0
1.5112e-05 -6.47584e-08 0
4.51209e-05 -8.03572e-07 0
6.09942e-05 -1.79394e-06 0
3.31812e-05 -4.96727e-07 0
2.79267e-05 -2.76287e-07 0
4.50091e-05 -7.98768e-07 0
3.30694e-05 -4.92919e-07 0
6.11927e-05 -1.54013e-06 0
6.1087e-05 -1.79886e-06 0
4.52157e-05 -8.06698e-07 0
6.39957e-05 -1.36019e-06 0
6.12024e-05 -1.53869e-06 0
4.52232e-05 -8.0597e-07 0
8.26807e-05 -3.72943e-06 0
0.000116572 -6.57991e-06 0
0.00010161 -6.2329e-06 0
8.02434e-05 -2.53169e-06 0
9.03745e-05 -3.75421e-06 0
6.1299e-05 -1.81195e-06 0
8.04021e-05 -2.53969e-06 0
0.000108358 -4.48097e-06 0
9.05319e-05 -3.76447e-06 0
6.41144e-05 -1.36527e-06 0
8.01565e-05 -2.52209e-06 0
6.13191e-05 -1.54454e-06 0
6.4199e-05 -1.36566e-06 0
7.59071e-05 -1.4627e-06 0
9.12925e-05 -2.61208e-06 0
8.52564e-05 -1.32978e-06 0
7.58785e-05 -1.45649e-06 0
6.16829e-05 -7.39694e-07 0
1.21196e-05 -5.15241e-08 0
1.51884e-05 -6.55835e-08 0
2.77565e-05 -2.72422e-07 0
1.69401e-05 -6.09044e-08 0
1.01316e-07 -8.78794e-12 0
1.31785e-05 -2.44999e-08 0
1.52129e-05 -6.5641e-08 0
1.7048e-05 -6.18631e-08 0
3.03585e-05 -2.46047e-07 0
5.68566e-08 -1.40201e-11 0
5.72782e-08 6.98948e-12 0
1.6896e-05 -6.06655e-08 0
0.000108644 -4.5054e-06 0
0.000138894 -7.43668e-06 0
0.000116786 -6.58684e-06 0
9.14555e-05 -2.62657e-06 0
0.000108363 -4.47587e-06 0
8.04041e-05 -2.53662e-06 0
6.42148e-05 -1.36828e-06 0
9.13059e-05 -2.61659e-06 0
8.02571e-05 -2.52628e-06 0
7.60404e-05 -1.46616e-06 0
0.000103908 -2.59464e-06 0
9.14257e-05 -2.61708e-06 0
0.000122579 -4.54311e-06 0
0.000138917 -7.42777e-06 0
0.000108661 -4.49965e-06 0
9.15965e-05 -2.63226e-06 0
0.000122418 -4.52764e-06 0
0.000108504 -4.48378e-06 0
0.000104209 -2.60806e-06 0
0.000134504 -3.92449e-06 0
0.000122549 -4.52541e-06 0
1.31218e-05 -2.42463e-08 0
4.40387e-08 -1.49735e-11 0
4.42796e-08 6.71246e-13 0
4.44716e-08 1.55583e-11 0
1.31222e-05 -2.42158e-08 0
4.42811e-08 7.73702e-13 0
2.86111e-05 -1.35429e-07 0
1.70351e-05 -6.15621e-08 0
1.32745e-05 -2.48499e-08 0
6.15744e-05 -7.3802e-07 0
7.57701e-05 -1.45385e-06 0
5.29355e-05 -7.25724e-07 0
4.70441e-05 -3.2427e-07 0
6.14329e-05 -7.32693e-07 0
3.93889e-05 -3.22451e-07 0
4.71404e-05 -3.25035e-07 0
6.80486e-05 -5.98399e-07 0
6.15291e-05 -7.33966e-07 0
9.11584e-05 -9.7382e-07 0
8.53305e-05 -1.32723e-06 0
6.8276e-05 -6.0183e-07 0
6.90902e-05 -3.45451e-07 0
9.11043e-05 -9.69765e-07 0
6.82209e-05 -5.99104e-07 0
0.000117685 -1.41015e-06 0
0.000142125 -2.91297e-06 0
0.000112119 -2.09906e-06 0
0.000103889 -2.58917e-06 0
7.60192e-05 -1.46276e-06 0
8.5399e-05 -1.33536e-06 0
4.33847e-05 -5.97549e-07 0
2.7911e-05 -2.75321e-07 0
3.0489e-05 -2.48691e-07 0
3.9305e-05 -3.22019e-07 0
5.27106e-05 -7.19855e-07 0
3.05578e-05 -2.49203e-07 0
6.39368e-05 -1.35647e-06 0
4.5164e-05 -8.03215e-07 0
4.35546e-05 -6.02902e-07 0
0.000147224 -1.74178e-06 0
0.000176581 -3.96151e-06 0
0.000142439 -2.92124e-06 0
0.00011888 -6.42991e-07 0
0.000146947 -1.72664e-06 0
0.000117723 -1.40226e-06 0
0.000176657 -3.97588e-06 0
0.000170028 -5.49086e-06 0
0.000142516 -2.93235e-06 0
0.000180189 -2.12256e-06 0
0.000176709 -3.95839e-06 0
0.000147349 -1.7394e-06 0
0.000180549 -2.12837e-06 0
0.000222476 -2.99113e-06 0
0.000209349 -5.00372e-06 0
0.000146599 -5.53313e-07 0
0.000180087 -2.10988e-06 0
0.000147248 -1.72898e-06 0
0.000222708 -3.00553e-06 0
0.000249082 -7.45729e-06 0
0.000209577 -5.02309e-06 0
0.000257995 -2.01711e-06 0
0.000222755 -2.97626e-06 0
0.000215095 -8.76503e-07 0
0.000300071 -9.11372e-09 0
0.000258366 -2.00382e-06 0
0.000247946 -4.30067e-09 0
0.00030042 -3.37325e-08 0
0.00032902 -7.74122e-06 0
0.000278859 -5.18403e-06 0
0.000277282 -2.20798e-05 0
0.000322365 -3.09711e-05 0
0.000280311 -3.30884e-05 0
0.000234815 -1.41816e-05 0
0.000276845 -2.19874e-05 0
0.000239043 -2.12511e-05 0
0.00023491 -1.416e-05 0
0.000268502 -1.38918e-05 0
0.000276949 -2.19584e-05 0
0.00027836 -5.17258e-06 0
0.000222965 -2.99176e-06 0
0.000258208 -2.03001e-06 0
0.000216256 -8.51801e-06 0
0.000249258 -7.50794e-06 0
0.000268346 -1.382e-05 0
0.000209195 -5.00704e-06 0
0.000176915 -3.97114e-06 0
0.000180398 -2.13112e-06 0
0.000216061 -8.4895e-06 0
0.000209556 -5.04033e-06 0
0.000249058 -7.48069e-06 0
0.000215821 -8.47294e-06 0
0.000177035 -3.98962e-06 0
0.000209314 -5.0294e-06 0
0.000190021 -9.03115e-06 0
0.000215947 -8.52334e-06 0
0.000234445 -1.4096e-05 0
0.000170272 -5.51026e-06 0
0.000176905 -3.99124e-06 0
0.000215687 -8.4749e-06 0
0.000300068 -1.17672e-05 0
0.000329179 -7.83832e-06 0
0.000325329 -1.9688e-05 0
0.000359878 -2.88308e-08 0
0.000329298 -7.72732e-06 0
0.000300687 -1.67165e-08 0
0.000325226 -1.98091e-05 0
0.000322521 -3.09211e-05 0
0.000277427 -2.20417e-05 0
0.000299864 -1.17873e-05 0
0.000325118 -1.97097e-05 0
0.000268876 -1.38776e-05 0
0.000380036 -2.93946e-05 0
0.000322865 -3.09544e-05 0
0.00032557 -1.9826e-05 0
2.8698e-05 -1.36424e-07 0
3.918e-05 -3.19236e-07 0
1.71223e-05 -6.2258e-08 0
1.55867e-05 -1.0215e-07 0
2.78267e-05 -2.74371e-07 0
3.29718e-05 -4.90117e-07 0
4.08783e-08 1.20844e-11 0
1.19769e-05 -5.03306e-08 0
4.042e-08 -9.62644e-13 0
9.16364e-08 8.52204e-12 0
1.50949e-05 -6.47389e-08 0
1.20271e-05 -5.07195e-08 0
0.00027859 -5.22069e-06 0
0.000299644 -1.17136e-05 0
0.000249569 -7.49115e-06 0
0.000300179 -2.61416e-08 0
0.000278624 -5.16304e-06 0
0.000258468 -2.02125e-06 0
0.000329014 -7.79176e-06 0
0.000299913 -1.17182e-05 0
0.000278856 -5.2198e-06 0
0.00015411 -6.63786e-06 0
0.000170791 -1.04109e-05 0
0.000139227 -7.45743e-06 0
0.000169925 -5.50524e-06 0
0.000154092 -6.60986e-06 0
0.00013483 -3.93949e-06 0
0.000189603 -9.01426e-06 0
0.000170962 -1.04177e-05 0
0.000154278 -6.64213e-06 0
0.000215728 -8.4961e-06 0
0.000189808 -9.00267e-06 0
0.000170316 -5.52543e-06 0
0.000153946 -6.61936e-06 0
0.000139069 -7.43688e-06 0
0.00012273 -4.54941e-06 0
0.000205835 -1.3692e-05 0
0.000171132 -1.04428e-05 0
0.000189779 -9.03642e-06 0
0.000205851 -1.372e-05 0
0.000194572 -1.66692e-05 0
0.00017115 -1.04645e-05 0
0.000216209 -8.53628e-06 0
0.000268294 -1.38467e-05 0
0.000234708 -1.41157e-05 0
0.000194672 -1.67401e-05 0
0.000225556 -2.59759e-05 0
0.000181496 -1.96224e-05 0
0.000234577 -1.41582e-05 0
0.000238809 -2.12182e-05 0
0.000206211 -1.37452e-05 0
0.00018999 -9.04575e-06 0
0.000234409 -1.41169e-05 0
0.000206048 -1.37057e-05 0
0.000268804 -1.39078e-05 0
0.00032504 -1.97519e-05 0
0.000277251 -2.1985e-05 0
0.000279926 -3.31282e-05 0
0.00026057 -3.87629e-05 0
0.000226105 -2.6095e-05 0
0.000277002 -2.2052e-05 0
0.000280033 -3.30469e-05 0
0.000239193 -2.13112e-05 0
0.000322864 -3.10851e-05 0
0.00037867 -5.04339e-05 0
0.000326295 -4.21637e-05 0
0.000111842 -2.09122e-06 0
8.54757e-05 -1.33265e-06 0
9.13055e-05 -9.78055e-07 0
0.000117514 -1.40471e-06 0
0.00011195 -2.09171e-06 0
9.14125e-05 -9.78165e-07 0
0.00013447 -3.91476e-06 0
0.000104172 -2.60123e-06 0
0.00011205 -2.1054e-06 0
1.55409e-05 -1.01652e-07 0
3.29248e-05 -4.89213e-07 0
1.40866e-05 -9.81485e-08 0
1.20276e-05 -5.08263e-08 0
1.54242e-05 -9.99932e-08 0
9.20488e-08 -1.41033e-11 0
1.2121e-05 -5.16071e-08 0
2.77564e-05 -2.72738e-07 0
1.55161e-05 -1.01156e-07 0
4.04168e-08 -1.04583e-12 0
1.19759e-05 -5.03554e-08 0
3.99145e-08 -1.27051e-11 0
0.000124883 -1.23413e-05 0
0.000146652 -1.3924e-05 0
0.000157827 -1.97623e-05 0
0.00011896 -1.4218e-05 0
0.000124792 -1.23418e-05 0
0.000157727 -1.97653e-05 0
9.26889e-05 -6.3926e-06 0
0.000101643 -6.2505e-06 0
0.000116083 -9.19995e-06 0
4.78668e-05 -2.13146e-06 0
6.83301e-05 -3.90322e-06 0
6.91298e-05 -4.62588e-06 0
8.24597e-05 -3.70617e-06 0
6.13088e-05 -1.81447e-06 0
9.03809e-05 -3.75883e-06 0
1.4063e-05 -9.7947e-08 0
2.67104e-05 -3.73269e-07 0
1.44499e-05 -1.21264e-07 0
2.68744e-05 -3.77648e-07 0
3.30647e-05 -4.93857e-07 0
4.44849e-05 -1.04693e-06 0
4.73371e-08 3.27635e-12 0
1.39255e-05 -9.59697e-08 0
4.6571e-08 -1.10735e-11 0
9.87288e-08 -1.79654e-11 0
1.54297e-05 -1.00206e-07 0
1.39772e-05 -9.66238e-08 0
1.45076e-05 -1.2238e-07 0
3.24589e-05 -6.24342e-07 0
2.50247e-05 -4.10871e-07 0
4.89903e-08 8.46958e-12 0
1.43152e-05 -1.19085e-07 0
4.80997e-08 -8.39769e-12 0
9.55595e-08 -5.00639e-12 0
1.3973e-05 -9.6694e-08 0
1.43619e-05 -1.19798e-07 0
0.00037966 -1.33531e-05 0
0.000329557 -7.77852e-06 0
0.000360153 -6.43123e-08 0
0.000427737 -5.45594e-08 0
0.000379998 -1.33397e-05 0
0.000360477 -3.54927e-08 0
0.0004453 -1.97324e-05 0
0.000380642 -2.93426e-05 0
0.000380114 -1.34986e-05 0
0.000342274 -7.61252e-05 0
0.000272531 -6.24515e-05 0
0.000289374 -5.44151e-05 0
0.000408676 -7.67776e-05 0
0.00034289 -7.61844e-05 0
0.000332952 -5.54956e-05 0
0.000420026 -0.000101886 0
0.000362651 -0.000100611 0
0.000343019 -7.64071e-05 0
0.000445466 -1.96142e-05 0
0.000380273 -1.3413e-05 0
0.000428033 -1.12374e-07 0
1.24475e-05 -1.02975e-07 0
2.49953e-05 -4.10393e-07 0
2.58503e-05 -4.96715e-07 0
4.21818e-08 7.36502e-12 0
1.22774e-05 -1.0013e-07 0
4.13316e-08 -4.51454e-12 0
1.44397e-05 -1.21282e-07 0
2.49578e-05 -4.08828e-07 0
1.24078e-05 -1.02245e-07 0
9.02776e-08 -3.52726e-12 0
1.43553e-05 -1.19833e-07 0
1.23252e-05 -1.00865e-07 0
4.58267e-05 -1.53954e-06 0
5.04667e-05 -2.10567e-06 0
3.34798e-05 -9.28234e-07 0
5.67751e-05 -1.96444e-06 0
4.58724e-05 -1.53995e-06 0
4.08664e-05 -1.11386e-06 0
6.49784e-05 -3.07498e-06 0
5.05713e-05 -2.11352e-06 0
4.59334e-05 -1.54607e-06 0
5.68581e-05 -1.97082e-06 0
6.50019e-05 -3.07415e-06 0
4.59532e-05 -1.54584e-06 0
7.77959e-05 -3.95784e-06 0
9.24426e-05 -6.3617e-06 0
6.5226e-05 -3.09626e-06 0
0.000105033 -9.68372e-06 0
8.59785e-05 -6.39756e-06 0
9.26029e-05 -6.3938e-06 0
4.57441e-05 -1.53343e-06 0
3.33981e-05 -9.2339e-07 0
2.59893e-05 -5.0261e-07 0
4.78034e-05 -2.12468e-06 0
5.05891e-05 -2.11765e-06 0
6.82676e-05 -3.89401e-06 0
4.76896e-05 -2.11453e-06 0
3.34885e-05 -9.29447e-07 0
5.04723e-05 -2.10781e-06 0
0.000446229 -1.96967e-05 0
0.000505268 -1.77867e-07 0
0.000531317 -3.11869e-05 0
1.09432e-05 -1.9694e-07 0
1.14639e-05 -1.96578e-07 0
2.78418e-05 -1.20134e-06 0
9.36144e-06 -1.61829e-07 0
1.09135e-05 -1.96054e-07 0
2.07197e-05 -7.32206e-07 0
3.7446e-08 -1.19561e-11 0
3.88787e-08 -9.5855e-13 0
1.13335e-05 -1.92045e-07 0
0.000154274 -6.62801e-06 0
0.000170111 -5.52069e-06 0
0.000189601 -8.9951e-06 0
0.000122714 -4.5395e-06 0
0.000134673 -3.93678e-06 0
0.000153933 -6.60549e-06 0
0.00010401 -2.59196e-06 0
8.55192e-05 -1.3371e-06 0
0.000111884 -2.09771e-06 0
0.000136119 -8.87901e-05 0
0.000172238 -0.0001116 0
0.000133628 -0.000104823 0
0.000111477 -6.68039e-05 0
0.000135809 -8.85364e-05 0
0.000103659 -7.45863e-05 0
0.000162691 -8.88002e-05 0
0.000172337 -0.000111535 0
0.000136214 -8.8739e-05 0
0.000118363 -6.20027e-05 0
0.000162401 -8.85516e-05 0
0.000111605 -6.67648e-05 0
0.000115865 -4.33945e-05 0
0.000147051 -5.70867e-05 0
0.000116197 -5.17704e-05 0
0.000173989 -7.77883e-05 0
0.000162728 -8.86181e-05 0
0.000145175 -6.94109e-05 0
0.000221247 -0.000100395 0
0.000273506 -0.000132606 0
0.000211648 -0.000114648 0
3.26659e-05 -6.31998e-07 0
4.45828e-05 -1.05299e-06 0
5.67467e-05 -1.95963e-06 0
3.19671e-05 -1.0443e-06 0
4.76903e-05 -2.11779e-06 0
5.26907e-05 -2.95153e-06 0
1.29084e-05 -1.77624e-07 0
1.40555e-05 -1.88874e-07 0
3.17225e-05 -1.02843e-06 0
2.8075e-05 -7.22263e-07 0