# vtk DataFile Version 1.0
2D Unstructured Grid of Linear Triangles
ASCII
 
DATASET UNSTRUCTURED_GRID
POINTS 33636 float
119.821 33.2547  0
119.999 33.1142  0
119.999 33.3737  0
119.999 33.671  0
119.701 33.475  0
119.999 33.3763  0
119.787 33.0305  0
119.762 32.8863  0
119.998 32.8825  0
119.624 33.1746  0
119.786 33.0327  0
119.819 33.2537  0
119.624 33.1735  0
119.543 32.912  0
119.785 33.0316  0
119.699 33.4729  0
119.624 33.1761  0
119.819 33.2552  0
119.445 33.0915  0
119.542 32.9122  0
119.622 33.1737  0
119.42 33.3031  0
119.444 33.0928  0
119.622 33.175  0
119.08 33.5825  0
119.165 33.328  0
119.389 33.5652  0
119.19 33.0992  0
119.443 33.0925  0
119.418 33.3029  0
119.543 32.911  0
119.76 32.8864  0
119.786 33.0306  0
119.821 33.2535  0
119.787 33.0325  0
119.999 33.113  0
119.338 32.9636  0
119.352 32.7876  0
119.54 32.9105  0
119.19 33.098  0
119.337 32.9653  0
119.443 33.0914  0
119.178 32.8919  0
119.351 32.7876  0
119.336 32.9636  0
119.177 32.8911  0
119.138 32.7424  0
119.35 32.7868  0
118.947 33.1383  0
118.813 32.9772  0
119.001 32.9126  0
119.003 32.911  0
119.137 32.7428  0
119.176 32.8915  0
119.281 32.6299  0
119.334 32.501  0
119.497 32.6544  0
119.075 32.6218  0
119.279 32.6306  0
119.138 32.741  0
119.168 32.5004  0
119.333 32.5004  0
119.28 32.6294  0
119.893 32.5994  0
119.719 32.6294  0
119.833 32.5008  0
119.623 33.1763  0
119.697 33.4731  0
119.421 33.3044  0
119.497 32.6553  0
119.352 32.7857  0
119.281 32.6308  0
119.666 32.5005  0
119.499 32.6539  0
119.501 32.5005  0
119.541 32.9094  0
119.353 32.7866  0
119.498 32.6563  0
118.833 32.5013  0
118.894 32.7105  0
118.645 32.6647  0
118.999 32.5007  0
118.895 32.7099  0
118.834 32.5007  0
119.003 32.913  0
119.187 33.098  0
118.949 33.1387  0
118.895 32.7129  0
119.001 32.9112  0
118.813 32.9758  0
119.176 32.8927  0
119.188 33.0972  0
119.003 32.9122  0
119.338 32.9647  0
119.541 32.9115  0
119.444 33.0908  0
119.28 32.6311  0
119.351 32.7859  0
119.138 32.7415  0
119.334 32.5005  0
119.499 32.5005  0
119.498 32.6539  0
119.7 33.4764  0
119.998 33.6725  0
119.693 33.8143  0
119.697 33.4744  0
119.392 33.5648  0
119.42 33.3057  0
119.998 33.3749  0
119.7 33.4736  0
119.82 33.2559  0
119.691 33.8139  0
119.393 33.5665  0
119.698 33.4761  0
119.999 34.0094  0
119.694 33.8161  0
119.999 33.6743  0
119.43 34.1414  0
119.539 34.5682  0
119.145 34.3347  0
119.691 33.8183  0
119.725 34.2083  0
119.433 34.1385  0
119.999 34.0131  0
119.999 34.3935  0
119.728 34.2098  0
118.896 32.7103  0
119 32.5011  0
119.074 32.6212  0
119.074 32.622  0
119.136 32.7412  0
118.897 32.7111  0
119.166 32.5004  0
119.074 32.6205  0
119.001 32.5004  0
119.167 32.5008  0
119.279 32.6298  0
119.075 32.621  0
119.543 34.5707  0
119.998 34.3974  0
119.998 34.829  0
118.044 33.2151  0
117.774 33.4316  0
117.76 33.0952  0
119.336 32.9646  0
119.189 33.0974  0
119.177 32.8929  0
119.998 34.3954  0
119.542 34.5686  0
119.727 34.2117  0
119.164 33.325  0
118.949 33.1401  0
119.188 33.0994  0
119.417 33.3037  0
119.166 33.3255  0
119.189 33.0999  0
119.077 33.5825  0
118.78 33.5449  0
118.916 33.3562  0
118.704 32.8314  0
118.811 32.9766  0
118.615 33.0556  0
119.418 33.3052  0
119.39 33.5643  0
119.166 33.3271  0
118.915 33.3538  0
118.686 33.2671  0
118.947 33.1408  0
119.163 33.3258  0
118.917 33.3539  0
118.948 33.141  0
118.779 33.5439  0
118.686 33.2684  0
118.914 33.3551  0
119.164 33.3273  0
119.079 33.5818  0
118.917 33.3554  0
119.14 33.8936  0
119.08 33.5844  0
119.389 33.5671  0
119.138 33.8944  0
118.8 33.8018  0
119.078 33.5852  0
119.69 33.8151  0
119.419 33.8331  0
119.392 33.5677  0
118.829 34.1359  0
118.799 33.8036  0
119.137 33.8962  0
118.478 33.5724  0
118.684 33.2692  0
118.777 33.5446  0
117.667 34.1  0
117.866 33.7871  0
118.075 34.1582  0
118.083 33.5259  0
117.775 33.4331  0
118.045 33.2166  0
118.474 33.5727  0
118.086 33.5269  0
118.27 33.3836  0
118.188 33.8115  0
117.868 33.784  0
118.084 33.5291  0
118.778 33.5464  0
118.797 33.8006  0
118.478 33.5742  0
117.665 34.0986  0
117.523 33.7347  0
117.864 33.7857  0
119.002 32.9104  0
118.896 32.7121  0
119.136 32.7422  0
118.686 33.2658  0
118.812 32.9784  0
118.946 33.1395  0
118.705 32.8303  0
118.894 32.7126  0
118.812 32.9755  0
118.685 33.2656  0
118.615 33.0571  0
118.811 32.9781  0
118.5 32.9045  0
118.44 32.6779  0
118.643 32.666  0
118.645 32.6658  0
118.894 32.7116  0
118.704 32.8292  0
118.452 34.3175  0
118.827 34.1397  0
118.778 34.5353  0
118.451 34.3156  0
118.481 33.9579  0
118.826 34.1378  0
118.402 34.7129  0
118.45 34.3194  0
118.776 34.5372  0
118.08 34.1595  0
118.479 33.958  0
118.448 34.3156  0
117.71 34.4897  0
118.076 34.1622  0
118.079 34.5867  0
118.191 33.8142  0
118.478 33.9563  0
118.079 34.1578  0
118.192 33.8122  0
118.475 33.5756  0
118.479 33.9543  0
117.698 35.3676  0
118.161 35.6644  0
117.638 35.8972  0
116.958 34.7675  0
117.387 34.8906  0
117.144 35.3586  0
118.082 34.5907  0
118.399 34.7158  0
118.217 35.1154  0
117.866 33.7828  0
117.774 33.435  0
118.083 33.5278  0
118.077 34.1573  0
117.868 33.7861  0
118.188 33.8136  0
117.523 33.7325  0
117.772 33.4357  0
117.865 33.7835  0
119.525 35.0436  0
119.998 34.8337  0
119.998 35.3244  0
119.121 34.766  0
119.539 34.5726  0
119.52 35.0409  0
118.403 34.7152  0
118.777 34.5394  0
118.685 34.9792  0
118.781 34.5374  0
119.142 34.3367  0
119.118 34.7636  0
119.418 33.8333  0
119.141 33.8944  0
119.39 33.5679  0
119.998 34.0112  0
119.727 34.2079  0
119.693 33.8178  0
119.429 34.1391  0
119.144 34.3325  0
119.14 33.898  0
119.69 33.817  0
119.432 34.1372  0
119.42 33.835  0
119.725 34.2108  0
119.54 34.5677  0
119.432 34.141  0
118.645 32.664  0
118.667 32.5006  0
118.832 32.5006  0
118.501 32.905  0
118.644 32.6665  0
118.703 32.8299  0
118.44 32.6765  0
118.5 32.5011  0
118.643 32.6646  0
118.501 32.5006  0
118.666 32.5006  0
118.643 32.664  0
118.28 33.0242  0
118.498 32.9075  0
118.404 33.2066  0
118.098 32.6442  0
118.266 32.6513  0
118.15 32.8094  0
118 32.5011  0
118.096 32.6433  0
117.94 32.6924  0
118.167 32.501  0
118.266 32.6503  0
118.098 32.6432  0
118.168 32.5005  0
118.333 32.5005  0
118.267 32.6498  0
116.877 33.9643  0
116.868 34.3102  0
116.526 34.1017  0
116.612 33.7201  0
116.876 33.9624  0
116.525 34.0997  0
116.924 33.6767  0
117.198 33.8041  0
116.879 33.9612  0
117.663 34.0995  0
117.259 34.0699  0
117.521 33.7357  0
117.297 34.4277  0
116.957 34.7625  0
116.871 34.3139  0
117.663 34.1018  0
117.301 34.4247  0
117.258 34.0722  0
117.709 34.4923  0
118.078 34.5893  0
117.798 34.9394  0
117.664 34.1032  0
117.706 34.4889  0
117.302 34.4261  0
117.667 34.1024  0
118.074 34.1606  0
117.709 34.488  0
118.097 32.6444  0
118.149 32.8095  0
117.94 32.6935  0
118.438 32.6765  0
118.268 32.6504  0
118.333 32.5011  0
118.438 32.6776  0
118.336 32.8285  0
118.268 32.6515  0
118.499 32.5006  0
118.439 32.676  0
118.334 32.5006  0
118.335 32.829  0
118.15 32.81  0
118.267 32.6519  0
118.499 32.9051  0
118.337 32.8294  0
118.439 32.6784  0
118.498 32.9062  0
118.28 33.0229  0
118.336 32.8305  0
117.953 32.9383  0
117.94 32.6944  0
118.148 32.8105  0
118.107 33.0064  0
118.046 33.2132  0
117.953 32.9406  0
118.149 32.8116  0
118.107 33.005  0
117.954 32.9393  0
118.278 33.0245  0
118.047 33.2135  0
118.108 33.0067  0
118.335 32.8302  0
118.279 33.0226  0
118.15 32.8113  0
118.403 33.2077  0
118.048 33.2142  0
118.279 33.0252  0
118.613 33.0566  0
118.405 33.2068  0
118.5 32.9076  0
118.703 32.8312  0
118.614 33.0554  0
118.501 32.9063  0
118.684 33.2663  0
118.406 33.208  0
118.614 33.0578  0
118.683 33.2681  0
118.476 33.5713  0
118.405 33.2097  0
117.394 32.8301  0
117.473 33.021  0
117.208 32.9445  0
117.502 32.6605  0
117.394 32.828  0
117.279 32.689  0
117.503 32.6611  0
117.61 32.8616  0
117.395 32.8286  0
118.044 33.2135  0
117.76 33.0935  0
117.952 32.9409  0
117.303 33.1711  0
117.026 33.1309  0
117.206 32.946  0
117.573 33.2347  0
117.306 33.1718  0
117.474 33.0231  0
117.434 33.4267  0
117.192 33.552  0
117.133 33.3387  0
118.001 32.5005  0
118.166 32.5005  0
118.097 32.6427  0
118.22 35.1192  0
118.684 34.9836  0
118.683 35.4426  0
117.699 35.365  0
118.215 35.1212  0
118.163 35.6618  0
118.401 34.7171  0
118.683 34.9811  0
118.219 35.1167  0
118.078 34.1616  0
118.447 34.3177  0
118.081 34.5862  0
118.78 34.5396  0
119.116 34.7657  0
118.687 34.9794  0
118.082 34.588  0
118.448 34.3196  0
118.4 34.7131  0
118.829 34.1398  0
119.141 34.3346  0
118.78 34.5353  0
118.797 33.8038  0
118.827 34.1361  0
118.483 33.9562  0
118.477 33.5756  0
118.796 33.802  0
118.481 33.9543  0
118.78 33.5464  0
119.077 33.584  0
118.799 33.8006  0
119.43 34.1375  0
119.141 33.8964  0
119.418 33.8352  0
119.12 34.7637  0
119.144 34.3368  0
119.537 34.5702  0
118.83 34.1377  0
119.138 33.898  0
119.142 34.3325  0
119.996 35.3269  0
119.36 35.578  0
119.523 35.0461  0
118.215 35.1162  0
117.8 34.9415  0
118.08 34.5914  0
117.999 32.5006  0
117.939 32.6919  0
117.834 32.5006  0
117.938 32.6925  0
117.721 32.6696  0
117.833 32.5012  0
119.998 35.3297  0
119.998 35.8872  0
119.362 35.5808  0
117.719 32.6695  0
117.505 32.6593  0
117.666 32.5011  0
117.952 32.9384  0
117.804 32.8418  0
117.939 32.6945  0
117.802 32.8428  0
117.758 33.092  0
117.613 32.863  0
117.575 33.2358  0
117.758 33.0953  0
117.772 33.4317  0
117.306 33.1731  0
117.572 33.2361  0
117.436 33.4251  0
117.475 33.0229  0
117.757 33.0939  0
117.574 33.2344  0
117.278 32.6899  0
117.393 32.829  0
117.208 32.9434  0
117.505 32.6605  0
117.719 32.6707  0
117.611 32.861  0
117.334 32.5012  0
117.502 32.6594  0
117.279 32.6879  0
117.501 32.5005  0
117.666 32.5005  0
117.504 32.6588  0
118.762 36.4308  0
119.367 36.7587  0
118.705 37.0318  0
118.08 36.4302  0
118.758 36.4297  0
118.701 37.0307  0
118.711 35.9234  0
119.365 36.1236  0
118.762 36.4249  0
119.075 35.2105  0
119.354 35.579  0
118.689 35.4449  0
118.687 34.9839  0
119.073 35.2085  0
118.686 35.4429  0
119.52 35.0457  0
119.357 35.5776  0
119.078 35.2092  0
119.12 34.7682  0
119.519 35.043  0
[...]
POINT_DATA 33636
VECTORS velocity float
8.01843e-05 -4.08511e-10 0
6.52558e-05 -1.56152e-12 0
9.28289e-05 -2.08382e-12 0
0.000124419 -4.03339e-12 0
0.00010359 -6.00742e-10 0
9.31051e-05 -3.76334e-12 0
5.63661e-05 -3.00649e-10 0
4.1042e-05 -1.99539e-10 0
4.06424e-05 -1.77604e-12 0
7.16796e-05 -5.01542e-10 0
5.66004e-05 -3.03479e-10 0
8.00846e-05 -4.10901e-10 0
7.15578e-05 -5.0075e-10 0
4.37724e-05 -2.79961e-10 0
5.64786e-05 -3.03307e-10 0
0.000103371 -6.00732e-10 0
7.18366e-05 -5.0265e-10 0
8.02415e-05 -4.12154e-10 0
6.28424e-05 -3.99874e-10 0
4.37938e-05 -2.80097e-10 0
7.15791e-05 -5.01e-10 0
8.53336e-05 -4.26773e-10 0
6.29818e-05 -4.0046e-10 0
7.17185e-05 -5.02036e-10 0
0.000115013 1.0303e-09 0
8.79772e-05 7.94108e-11 0
0.000113178 -1.47114e-10 0
6.3661e-05 -1.6077e-10 0
6.29547e-05 -3.99491e-10 0
8.53066e-05 -4.24923e-10 0
4.367e-05 -2.79017e-10 0
4.10522e-05 -2.0044e-10 0
5.63762e-05 -3.02097e-10 0
8.00626e-05 -4.08936e-10 0
5.65785e-05 -3.02213e-10 0
6.51341e-05 -3.20142e-12 0
4.92606e-05 -2.64559e-10 0
3.05593e-05 -1.45385e-10 0
4.36111e-05 -2.7833e-10 0
6.35406e-05 -1.60629e-10 0
4.94352e-05 -2.65097e-10 0
6.28344e-05 -3.98648e-10 0
4.16341e-05 -1.38564e-10 0
3.05527e-05 -1.45119e-10 0
4.92539e-05 -2.63858e-10 0
4.15553e-05 -1.3791e-10 0
2.57522e-05 -6.80861e-11 0
3.04738e-05 -1.44385e-10 0
6.7823e-05 2.67676e-10 0
5.07019e-05 2.33415e-10 0
4.38426e-05 -1.3389e-11 0
4.36716e-05 -1.53204e-11 0
2.57964e-05 -6.79955e-11 0
4.15995e-05 -1.37353e-10 0
1.37987e-05 -3.50237e-11 0
1.01e-07 -2.27463e-14 0
1.64005e-05 -5.81776e-11 0
1.29381e-05 -1.77766e-11 0
1.38724e-05 -3.52723e-11 0
2.56009e-05 -6.7372e-11 0
4.61197e-08 1.11594e-15 0
4.61201e-08 -1.80687e-14 0
1.37438e-05 -3.47024e-11 0
1.05629e-05 -6.66458e-12 0
1.37518e-05 -3.35831e-11 0
8.13203e-08 -4.95442e-15 0
7.18541e-05 -5.02893e-10 0
0.000103389 -6.01016e-10 0
8.54692e-05 -4.27759e-10 0
1.6502e-05 -5.88867e-11 0
3.03504e-05 -1.43779e-10 0
1.39002e-05 -3.55137e-11 0
5.48808e-08 -3.84341e-15 0
1.63544e-05 -5.78676e-11 0
5.48803e-08 -1.00661e-14 0
4.35015e-05 -2.77297e-10 0
3.04497e-05 -1.44677e-10 0
1.66013e-05 -5.95634e-11 0
1.33321e-07 -8.29885e-14 0
2.23631e-05 -2.05902e-13 0
1.75005e-05 3.91578e-11 0
7.48466e-08 -8.6518e-14 0
2.23046e-05 -4.85631e-13 0
7.48466e-08 -1.76637e-14 0
4.38857e-05 -1.43035e-11 0
6.35389e-05 -1.57051e-10 0
6.78661e-05 2.65929e-10 0
2.26193e-05 -3.31235e-13 0
4.36909e-05 -1.3671e-11 0
5.05502e-05 2.31721e-10 0
4.17259e-05 -1.37854e-10 0
6.34512e-05 -1.58254e-10 0
4.3798e-05 -1.51384e-11 0
4.93687e-05 -2.65351e-10 0
4.37192e-05 -2.79396e-10 0
6.27678e-05 -3.98928e-10 0
1.39309e-05 -3.55978e-11 0
3.03811e-05 -1.43751e-10 0
2.56595e-05 -6.78142e-11 0
5.48799e-08 -3.63307e-15 0
5.48803e-08 -1.00654e-14 0
1.63544e-05 -5.78674e-11 0
0.000103746 -6.01076e-10 0
0.000124575 -8.42669e-12 0
0.00013964 -4.32417e-10 0
0.000103527 -6.01299e-10 0
0.000113132 -1.55754e-10 0
8.56077e-05 -4.26568e-10 0
9.2957e-05 -5.84103e-12 0
0.000103442 -6.00476e-10 0
8.03124e-05 -4.10717e-10 0
0.000139603 -4.30603e-10 0
0.000113313 -1.55767e-10 0
0.000103709 -6.01337e-10 0
0.000160374 -3.44797e-12 0
0.000139831 -4.31768e-10 0
0.000124765 -4.40375e-12 0
0.000174398 1.43696e-09 0
0.000219742 2.8032e-09 0
0.000194944 5.40759e-09 0
0.000140066 -4.26601e-10 0
0.000181505 1.59307e-10 0
0.000174086 1.40688e-09 0
0.000160769 -3.26991e-12 0
0.000201184 -4.87882e-13 0
0.000181665 1.53345e-10 0
2.23476e-05 -6.07344e-13 0
1.17821e-07 -9.31873e-14 0
1.28812e-05 -1.74967e-11 0
1.29668e-05 -1.77333e-11 0
2.56297e-05 -6.71647e-11 0
2.24332e-05 -7.18824e-13 0
4.29742e-08 -1.58133e-14 0
1.28064e-05 -1.73731e-11 0
4.2974e-08 -6.31387e-15 0
8.90939e-08 -1.52252e-14 0
1.37868e-05 -3.4866e-11 0
1.28525e-05 -1.75485e-11 0
0.000220009 2.76834e-09 0
0.000201602 -8.36914e-13 0
0.000247453 7.66992e-12 0
7.59894e-05 2.93199e-09 0
9.89962e-05 6.36489e-09 0
6.32445e-05 2.59804e-09 0
4.93644e-05 -2.64214e-10 0
6.34699e-05 -1.59617e-10 0
4.17446e-05 -1.38603e-10 0
0.000201382 -1.32101e-12 0
0.000219789 2.7662e-09 0
0.000181863 1.62143e-10 0
8.76545e-05 7.77409e-11 0
6.8013e-05 2.67081e-10 0
6.36858e-05 -1.57403e-10 0
8.53896e-05 -4.2357e-10 0
8.77128e-05 7.46316e-11 0
6.37441e-05 -1.59348e-10 0
0.000115016 1.04345e-09 0
0.000111024 2.31689e-09 0
9.09674e-05 8.79501e-10 0
3.52128e-05 1.50637e-10 0
5.06436e-05 2.3518e-10 0
5.90326e-05 6.97091e-10 0
8.55552e-05 -4.24222e-10 0
0.000113079 -1.51623e-10 0
8.78783e-05 7.52316e-11 0
9.07117e-05 8.74164e-10 0
8.15052e-05 1.28661e-09 0
6.80828e-05 2.72989e-10 0
8.77452e-05 8.12345e-11 0
9.07326e-05 8.69434e-10 0
6.81037e-05 2.70216e-10 0
0.000110912 2.31744e-09 0
8.16489e-05 1.29402e-09 0
9.08554e-05 8.8043e-10 0
8.79024e-05 8.23072e-11 0
0.000114938 1.03489e-09 0
9.08898e-05 8.72801e-10 0
0.000148073 2.15693e-09 0
0.000115215 1.03777e-09 0
0.00011338 -1.44233e-10 0
0.000148157 2.17492e-09 0
0.000138319 4.00419e-09 0
0.000115299 1.04968e-09 0
0.00013973 -4.28252e-10 0
0.000141638 3.39798e-10 0
0.00011344 -1.51351e-10 0
0.000173818 6.99552e-09 0
0.000138516 4.02565e-09 0
0.000148353 2.19113e-09 0
0.000113949 4.20314e-09 0
8.17264e-05 1.30153e-09 0
0.000110989 2.32934e-09 0
0.000170027 2.04267e-08 0
0.00013677 1.15093e-08 0
0.000176203 1.66684e-08 0
0.000109011 5.99844e-09 0
9.91498e-05 6.37983e-09 0
7.61429e-05 2.9411e-09 0
0.000113983 4.22781e-09 0
0.00010912 5.99357e-09 0
9.38823e-05 3.57748e-09 0
0.000139356 9.16074e-09 0
0.000136444 1.14381e-08 0
0.000109347 6.03291e-09 0
0.000111179 2.33803e-09 0
0.000138192 4.01859e-09 0
0.000114138 4.21687e-09 0
0.000169876 2.04124e-08 0
0.00013121 1.32193e-08 0
0.000136619 1.14986e-08 0
4.36076e-05 -1.47643e-11 0
2.2536e-05 -6.07173e-13 0
2.57325e-05 -6.75168e-11 0
8.13713e-05 1.2825e-09 0
5.08278e-05 2.36254e-10 0
6.79489e-05 2.71598e-10 0
3.50905e-05 1.48817e-10 0
2.25904e-05 -1.56058e-13 0
5.05213e-05 2.32537e-10 0
8.13419e-05 1.28469e-09 0
5.91874e-05 7.01499e-10 0
5.07984e-05 2.37205e-10 0
4.29789e-05 4.45504e-10 0
1.89001e-05 8.76924e-11 0
1.76322e-05 4.00889e-11 0
1.76174e-05 3.97354e-11 0
2.248e-05 -4.03828e-14 0
3.49801e-05 1.48015e-10 0
0.000193123 1.45806e-08 0
0.000174227 7.06564e-09 0
0.000216256 1.31935e-08 0
0.000192917 1.45599e-08 0
0.000154911 8.50431e-09 0
0.000174021 7.05491e-09 0
0.000235144 2.38106e-08 0
0.000193327 1.46369e-08 0
0.000216461 1.32486e-08 0
0.000176341 1.66353e-08 0
0.000154919 8.53053e-09 0
0.000192925 1.45982e-08 0
0.000211435 3.09307e-08 0
0.000176626 1.67419e-08 0
0.000221741 2.70192e-08 0
0.000139641 9.18346e-09 0
0.00015474 8.51654e-09 0
0.000176162 1.66109e-08 0
0.000139433 9.14266e-09 0
0.000114287 4.24738e-09 0
0.000154532 8.47689e-09 0
0.000304731 6.46624e-08 0
0.000336258 6.11009e-08 0
0.000361016 9.25254e-08 0
0.000240995 5.60601e-08 0
0.000254056 5.23153e-08 0
0.000303807 8.13138e-08 0
0.00022216 2.7074e-08 0
0.000235446 2.39432e-08 0
0.000277918 3.95508e-08 0
0.00013631 1.14265e-08 0
9.93517e-05 6.40903e-09 0
0.000109213 6.02518e-09 0
0.000176101 1.66252e-08 0
0.000136668 1.1477e-08 0
0.00013958 9.19268e-09 0
0.000130974 1.31691e-08 0
9.94247e-05 6.42736e-09 0
0.000136383 1.14548e-08 0
0.000270262 6.41319e-09 0
0.000247951 8.28083e-12 0
0.000300093 2.27776e-11 0
0.000240771 1.06207e-08 0
0.000220215 2.82706e-09 0
0.000269971 6.46979e-09 0
0.000235379 2.38475e-08 0
0.000216696 1.32714e-08 0
0.00026343 2.36683e-08 0
0.000216485 1.31733e-08 0
0.000195154 5.46812e-09 0
0.000240508 1.06564e-08 0
0.000141666 3.48389e-10 0
0.000148162 2.15384e-09 0
0.000113469 -1.46054e-10 0
0.000160564 -6.70684e-12 0
0.00018146 1.52231e-10 0
0.000140021 -4.28966e-10 0
0.000174159 1.43547e-09 0
0.000194705 5.40247e-09 0
0.000148542 2.17939e-09 0
0.000139933 -4.2675e-10 0
0.000173953 1.40815e-09 0
0.000141841 3.44747e-10 0
0.000181773 1.66469e-10 0
0.000219698 2.7809e-09 0
0.000174353 1.42182e-09 0
1.74256e-05 3.89503e-11 0
5.84743e-08 -1.42372e-14 0
5.84742e-08 -6.63112e-14 0
4.30331e-05 4.4588e-10 0
1.76864e-05 4.02136e-11 0
3.5049e-05 1.49591e-10 0
1.87563e-05 8.63181e-11 0
1.21218e-07 8.46105e-15 0
1.74884e-05 3.94516e-11 0
5.84746e-08 3.368e-14 0
5.84743e-08 -1.39017e-14 0
1.74256e-05 3.90503e-11 0
5.5696e-05 1.15268e-09 0
4.32941e-05 4.53791e-10 0
7.50837e-05 1.82435e-09 0
1.53242e-05 1.05185e-10 0
1.6074e-05 8.88267e-11 0
3.28743e-05 4.60382e-10 0
1.19312e-07 -4.80094e-15 0
1.52292e-05 1.04089e-10 0
2.04456e-05 2.25935e-10 0
1.04273e-07 1.10222e-14 0
1.5964e-05 8.7595e-11 0
1.52142e-05 1.03681e-10 0
5.33993e-08 2.39084e-14 0
5.33987e-08 -1.96052e-14 0
1.59131e-05 8.69357e-11 0
0.000155632 2.49642e-08 0
0.000192388 3.76605e-08 0
0.000170242 3.34535e-08 0
0.000129683 1.93017e-08 0
0.000155421 2.4907e-08 0
0.000170032 3.33835e-08 0
0.000125054 1.60437e-08 0
0.000138592 1.74168e-08 0
0.000155301 2.48388e-08 0
0.000169977 2.04615e-08 0
0.000166837 2.43565e-08 0
0.000131311 1.32551e-08 0
0.000204866 3.57708e-08 0
0.000240459 5.58468e-08 0
0.000192788 3.77717e-08 0
0.000170223 2.05301e-08 0
0.000204545 3.5603e-08 0
0.000167082 2.44351e-08 0
0.000211712 3.10289e-08 0
0.000222018 2.71082e-08 0
0.000259228 4.44256e-08 0
0.000170372 2.0548e-08 0
0.000211357 3.09771e-08 0
0.000204693 3.56295e-08 0
0.000170277 2.04936e-08 0
0.000176453 1.67253e-08 0
0.000211262 3.09039e-08 0
1.53392e-05 1.05561e-10 0
3.28893e-05 4.61433e-10 0
2.05556e-05 2.28268e-10 0
1.87513e-05 8.65856e-11 0
1.59759e-05 8.75109e-11 0
1.16142e-07 1.18222e-14 0
1.8868e-05 8.77045e-11 0
3.49052e-05 3.93612e-10 0
1.60926e-05 8.88056e-11 0
6.27432e-08 -2.6467e-14 0
1.86979e-05 8.59601e-11 0
6.27438e-08 2.94085e-14 0
3.49525e-05 3.95379e-10 0
3.29401e-05 4.61809e-10 0
1.61398e-05 8.94632e-11 0
4.30372e-05 4.47752e-10 0
3.49957e-05 3.95254e-10 0
1.89584e-05 8.84566e-11 0
4.316e-05 4.51045e-10 0
5.55619e-05 1.14719e-09 0
3.51185e-05 3.98491e-10 0
4.65673e-05 1.17672e-09 0
2.06603e-05 2.30723e-10 0
3.29941e-05 4.6473e-10 0
5.38065e-05 1.33952e-09 0
7.57833e-05 2.91046e-09 0
4.68212e-05 1.18956e-09 0
3.31048e-05 4.67592e-10 0
5.36633e-05 1.33167e-09 0
4.6678e-05 1.18175e-09 0
5.57337e-05 1.15838e-09 0
7.58132e-05 2.90975e-09 0
5.38364e-05 1.33935e-09 0
3.50846e-05 3.9849e-10 0
5.55281e-05 1.1476e-09 0
3.30723e-05 4.65604e-10 0
7.5193e-05 1.83447e-09 0
7.58849e-05 2.91252e-09 0
5.58054e-05 1.15993e-09 0
5.91414e-05 7.03643e-10 0
7.50952e-05 1.82188e-09 0
4.33057e-05 4.52975e-10 0
3.51877e-05 1.51048e-10 0
5.90075e-05 6.98202e-10 0
4.31718e-05 4.49039e-10 0
8.14239e-05 1.29203e-09 0
7.52232e-05 1.82689e-09 0
5.92694e-05 7.06197e-10 0
8.1607e-05 1.30061e-09 0
0.000113829 4.20036e-09 0
7.54062e-05 1.83802e-09 0
3.50754e-05 1.03284e-09 0
5.53633e-05 2.43919e-09 0
4.72376e-05 2.07376e-09 0
1.7052e-05 2.28394e-10 0
3.48564e-05 1.01983e-09 0
2.00828e-05 3.64434e-10 0
1.71136e-05 2.29909e-10 0
3.84183e-05 1.07059e-09 0
3.49179e-05 1.02274e-09 0
7.58144e-05 2.91629e-09 0
6.30696e-05 2.58235e-09 0
4.68523e-05 1.1925e-09 0
7.13213e-05 4.45841e-09 0
6.70474e-05 4.53061e-09 0
4.73979e-05 2.08968e-09 0
7.8072e-05 4.54113e-09 0
7.13856e-05 4.45983e-09 0
5.55879e-05 2.45756e-09 0
9.84793e-05 7.85439e-09 0
0.000111794 1.14584e-08 0
8.91346e-05 7.54814e-09 0
5.08749e-08 2.04117e-14 0
5.08741e-08 -1.50301e-14 0
1.51608e-05 1.03062e-10 0
0.000278316 3.9589e-08 0
0.000263895 2.37893e-08 0
0.000312672 3.52282e-08 0
0.000304454 6.4485e-08 0
0.00027853 3.97932e-08 0
0.000335981 6.09242e-08 0
0.000235585 2.39328e-08 0
0.000263636 2.37573e-08 0
0.000278057 3.9537e-08 0
0.000176565 1.66975e-08 0
0.000193149 1.46564e-08 0
0.00022168 2.69563e-08 0
0.000216714 1.32338e-08 0
0.000240738 1.07126e-08 0
0.000263448 2.36142e-08 0
0.000221876 2.69861e-08 0
0.000193345 1.46744e-08 0
0.000235162 2.38631e-08 0
0.000174233 7.04026e-09 0
0.000194932 5.45999e-09 0
0.000216262 1.31557e-08 0
0.000138537 4.04404e-09 0
0.000173839 7.02241e-09 0
0.000154729 8.46953e-09 0
0.000114284 4.23513e-09 0
0.000138337 4.0374e-09 0
0.000154529 8.45608e-09 0
0.000111182 2.32772e-09 0
0.000115174 1.05076e-09 0
0.000138195 4.00374e-09 0
0.000173981 1.42161e-09 0
0.000148365 2.16351e-09 0
0.000141869 3.53365e-10 0
0.00024052 1.06121e-08 0
0.000195166 5.4392e-09 0
0.000219964 2.82638e-09 0
0.000174006 7.00267e-09 0
0.000148542 2.19319e-09 0
0.000194705 5.42598e-09 0
0.000300358 5.44292e-11 0
0.000327043 1.64785e-08 0
0.000270528 6.47297e-09 0
0.000277999 3.96306e-08 0
0.000259451 4.44609e-08 0
0.000222241 2.71331e-08 0
6.84367e-08 -2.85284e-14 0
2.03947e-05 2.24962e-10 0
6.8438e-08 3.90808e-14 0
2.0455e-05 2.26494e-10 0
1.80215e-05 2.15443e-10 0
1.28681e-07 6.27134e-15 0
0.000300658 3.16522e-11 0
0.000359886 5.99518e-11 0
0.000327342 1.64704e-08 0
1.80097e-05 2.15477e-10 0
1.69289e-05 2.24804e-10 0
1.16848e-07 -3.11552e-14 0
4.65784e-05 1.17862e-09 0
3.63135e-05 8.19248e-10 0
2.06715e-05 2.31204e-10 0
3.6428e-05 8.25634e-10 0
6.29102e-05 2.57308e-09 0
3.85765e-05 1.0778e-09 0
7.819e-05 4.54746e-09 0
6.32519e-05 2.60185e-09 0
9.90036e-05 6.37314e-09 0
7.1529e-05 4.47793e-09 0
7.82153e-05 4.55821e-09 0
9.83081e-05 7.81901e-09 0
5.55601e-05 2.45278e-09 0
6.31061e-05 2.59178e-09 0
7.80442e-05 4.5334e-09 0
2.01837e-05 3.68266e-10 0
3.49573e-05 1.0263e-09 0
4.71195e-05 2.06422e-09 0
1.70573e-05 2.28254e-10 0
1.8138e-05 2.18587e-10 0
3.8362e-05 1.06665e-09 0
1.23416e-07 5.56704e-14 0
1.69355e-05 2.253e-10 0
1.99662e-05 3.60276e-10 0
5.66054e-08 4.34031e-15 0
5.66039e-08 -4.48209e-14 0
1.68687e-05 2.23318e-10 0
0.000417664 6.23527e-08 0
0.000452486 3.67821e-08 0
0.00048153 8.78123e-08 0
0.000417636 9.8956e-08 0
0.000417547 6.25475e-08 0
0.000481414 8.80655e-08 0
0.000363751 4.82645e-08 0
0.000385011 2.50617e-08 0
0.000417045 6.21533e-08 0
0.000288 1.85252e-08 0
0.000327143 1.66731e-08 0
0.000312916 3.51235e-08 0
0.000263927 2.37264e-08 0
0.000287788 1.85478e-08 0
0.000312704 3.51429e-08 0
0.000270486 6.52508e-09 0
0.000327001 1.65678e-08 0
0.000287857 1.84292e-08 0
0.000240997 1.0677e-08 0
0.000270197 6.5161e-09 0
0.000287569 1.84017e-08 0
0.000220238 2.79766e-09 0
0.000247683 1.59727e-11 0
0.000269994 6.4189e-09 0
0.000385307 2.50143e-08 0
0.000452163 3.65868e-08 0
0.000417341 6.21298e-08 0
0.000360168 1.20541e-10 0
0.0003847 2.47373e-08 0
0.000327624 1.65749e-08 0
0.000360504 6.05693e-11 0
0.000427776 9.86162e-11 0
0.000385036 2.46997e-08 0
0.000137962 3.2946e-08 0
0.000138281 3.10452e-08 0
0.000168457 4.61234e-08 0
1.8263e-05 6.23276e-10 0
6.12864e-08 2.71577e-14 0
6.12824e-08 6.12201e-15 0
3.91548e-05 2.75715e-09 0
1.84575e-05 6.36503e-10 0
1.91356e-05 6.58908e-10 0
3.5633e-05 2.37367e-09 0
4.28607e-05 3.51594e-09 0
1.84996e-05 6.64988e-10 0
0.000109105 1.92352e-08 0
0.000123995 2.35897e-08 0
0.000138035 3.09221e-08 0
8.47638e-05 1.19566e-08 0
0.000108885 1.91656e-08 0
0.000111261 2.10205e-08 0
8.46537e-05 1.19235e-08 0
7.84424e-05 9.93095e-09 0
0.000108775 1.91234e-08 0
7.82985e-05 9.89104e-09 0
6.12393e-05 5.90403e-09 0
8.91622e-05 1.21938e-08 0
6.52741e-05 7.50008e-09 0
5.54518e-05 5.30274e-09 0
8.44313e-05 1.18667e-08 0
5.70356e-05 5.39756e-09 0
6.11315e-05 5.8848e-09 0
7.81907e-05 9.86633e-09 0
8.44803e-05 1.18757e-08 0
5.7114e-05 5.41336e-09 0
7.8269e-05 9.88792e-09 0
3.60395e-05 2.23199e-09 0
4.05468e-05 2.67372e-09 0
5.68258e-05 5.35955e-09 0
1.4692e-05 3.75562e-10 0
3.58269e-05 2.20671e-09 0
1.91119e-05 6.57058e-10 0
1.12256e-07 5.60924e-14 0
1.45721e-05 3.69482e-10 0
1.89921e-05 6.4892e-10 0
4.86859e-08 3.04986e-15 0
4.8683e-08 -6.71224e-15 0
1.45086e-05 3.66184e-10 0
1.93873e-05 6.11232e-10 0
1.84665e-05 5.29364e-10 0
4.00267e-05 2.48089e-09 0
2.39865e-05 9.66192e-10 0
1.94069e-05 6.12673e-10 0
4.03813e-05 2.65151e-09 0
3.59295e-05 2.21844e-09 0
2.40419e-05 9.70829e-10 0
4.04367e-05 2.65931e-09 0
1.45884e-05 3.70193e-10 0
1.28503e-07 3.8615e-14 0
2.38357e-05 9.54392e-10 0
6.44051e-08 5.47475e-14 0
6.44014e-08 1.70605e-14 0
1.91921e-05 5.99177e-10 0
0.000114636 1.91119e-08 0
0.000118605 1.9123e-08 0
0.000150432 3.18486e-08 0
0.000124055 2.35932e-08 0
0.000114654 1.91257e-08 0
0.00015045 3.1869e-08 0
0.000123851 2.35219e-08 0
8.94925e-05 1.22792e-08 0
0.000114449 1.90629e-08 0
8.44036e-05 1.18566e-08 0
5.54241e-05 5.29643e-09 0
5.70373e-05 5.40004e-09 0
8.94322e-05 1.05423e-08 0
6.20566e-05 5.30759e-09 0
6.60407e-05 5.48353e-09 0
0.000119393 1.7919e-08 0
8.97298e-05 1.0608e-08 0
9.76875e-05 1.15262e-08 0
8.79874e-05 1.10088e-08 0
6.21302e-05 5.32229e-09 0
8.95059e-05 1.0564e-08 0
8.91151e-05 1.21776e-08 0
6.11921e-05 5.89331e-09 0
6.4243e-05 6.12668e-09 0
1.8334e-05 5.21625e-10 0
1.27093e-07 1.50825e-14 0
1.96681e-05 5.72943e-10 0
0.000138468 1.73617e-08 0
0.000112068 1.15109e-08 0
0.000131023 1.32104e-08 0
0.000155441 2.48717e-08 0
0.000138732 1.74424e-08 0
0.000166813 2.43911e-08 0
0.000124909 1.60009e-08 0
0.000112048 1.15177e-08 0
0.000138447 1.73727e-08 0
7.12825e-05 4.44999e-09 0
4.73591e-05 2.08469e-09 0
5.54848e-05 2.45034e-09 0
6.3912e-05 4.58874e-09 0
6.71867e-05 4.55518e-09 0
9.64669e-05 9.95545e-09 0
6.37297e-05 4.56266e-09 0
4.21626e-05 1.90568e-09 0
6.70045e-05 4.53046e-09 0
3.85466e-05 1.07784e-09 0
5.53341e-05 2.43458e-09 0
3.50462e-05 1.03028e-09 0
3.6278e-05 8.18921e-10 0
3.84265e-05 1.0695e-09 0
1.82025e-05 2.1998e-10 0
2.05761e-05 2.29239e-10 0
3.62181e-05 8.15447e-10 0
1.81426e-05 2.18364e-10 0
4.67202e-05 1.18659e-09 0
6.29375e-05 2.5731e-09 0
3.64553e-05 8.26059e-10 0
6.29739e-05 2.58054e-09 0
5.54279e-05 2.44095e-09 0
3.86403e-05 1.08219e-09 0
0.000150857 3.20348e-08 0
0.000194936 5.21312e-08 0
0.000165467 4.14157e-08 0
0.000119658 1.80042e-08 0
0.000148062 2.79738e-08 0
0.000118614 1.91104e-08 0
0.000170455 3.35461e-08 0
0.000192601 3.77571e-08 0
0.000218993 5.41817e-08 0
0.000129659 1.93088e-08 0
0.000170008 3.33969e-08 0
0.000148268 2.80293e-08 0
0.000129532 1.92497e-08 0
0.000125024 1.60488e-08 0
0.00015527 2.48478e-08 0
6.02446e-08 8.55289e-15 0
6.02432e-08 -3.79216e-14 0
1.79531e-05 2.13949e-10 0
0.000167157 2.44865e-08 0
0.00020462 3.56709e-08 0
0.000192542 3.76657e-08 0
9.37693e-05 3.56363e-09 0
7.54471e-05 1.84416e-09 0
0.00011387 4.21185e-09 0
0.000139281 9.13258e-09 0
0.000109273 6.01272e-09 0
0.000114135 4.24229e-09 0
7.60118e-05 2.92267e-09 0
7.532e-05 1.84139e-09 0
9.36423e-05 3.55921e-09 0
0.000108993 5.98701e-09 0
7.61248e-05 2.93484e-09 0
9.37553e-05 3.57306e-09 0
9.8577e-05 7.85538e-09 0
9.92979e-05 6.41745e-09 0
0.000130847 1.31545e-08 0
9.84007e-05 7.82666e-09 0
7.83079e-05 4.56437e-09 0
9.91216e-05 6.3936e-09 0
5.36932e-05 1.3315e-09 0
3.31347e-05 4.67853e-10 0
5.55905e-05 1.15155e-09 0
0.000211819 3.11008e-08 0
0.000259335 4.45192e-08 0
0.00025381 5.21086e-08 0
0.000428084 1.99503e-10 0
0.000452199 3.63438e-08 0
0.000385343 2.48411e-08 0
8.96944e-05 1.06082e-08 0
0.000118313 1.90232e-08 0
8.8176e-05 1.10554e-08 0
8.03416e-05 7.52538e-09 0
9.7478e-05 1.14717e-08 0
6.61287e-05 5.49345e-09 0
6.38537e-05 4.58504e-09 0
8.02288e-05 7.50251e-09 0
6.60159e-05 5.47354e-09 0
6.39561e-05 4.5972e-09 0
9.65111e-05 9.96918e-09 0
8.03311e-05 7.51767e-09 0
0.000119463 1.79471e-08 0
0.000118418 1.90496e-08 0
8.97994e-05 1.06285e-08 0
0.000129322 1.92095e-08 0
0.000119526 1.79511e-08 0
9.78204e-05 1.15521e-08 0
0.00012949 1.92642e-08 0
0.000148099 2.7973e-08 0
0.000119695 1.8005e-08 0
0.000124828 1.60004e-08 0
0.000129336 1.91941e-08 0
9.68785e-05 1.0042e-08 0
0.000111908 1.14958e-08 0
0.000124769 1.59734e-08 0
9.68201e-05 1.00226e-08 0
6.72709e-05 4.56395e-09 0
8.89792e-05 7.5312e-09 0
9.65511e-05 9.96773e-09 0
9.86194e-05 7.87086e-09 0
0.000130889 1.31775e-08 0
0.000111934 1.14796e-08 0
0.000166993 2.44551e-08 0
0.000192377 3.76231e-08 0
0.000155621 2.49378e-08 0
0.00017044 3.35653e-08 0
0.000218978 5.42128e-08 0
0.000188113 4.4874e-08 0
0.000138651 1.7405e-08 0
0.000131206 1.32456e-08 0
0.000166732 2.43439e-08 0
0.000240796 5.60657e-08 0
0.000278913 8.2328e-08 0
0.000219517 5.44163e-08 0
0.000253725 5.21704e-08 0
0.000240663 5.59027e-08 0
0.00020507 3.58129e-08 0
0.000211637 3.10758e-08 0
0.000253627 5.20737e-08 0
0.000204973 3.57395e-08 0
0.000259644 4.46276e-08 0
0.000304118 6.44699e-08 0
0.00025412 5.22337e-08 0
0.000304266 6.46011e-08 0
0.000304019 8.13476e-08 0
0.000254268 5.23437e-08 0
0.000278274 3.97496e-08 0
0.000304199 6.44167e-08 0